# vtk DataFile Version 3.0
Voronoi results
ASCII
 
DATASET UNSTRUCTURED_GRID
POINTS 3080 float
-2.5 -2.5 18
-2.5 -2.5 20
-2.5 2.5 18
-2.5 2.5 20
2.5 -2.5 18
2.5 -2.5 20
2.5 2.5 18
2.5 2.5 20
-5 5 16
-5 5 18
-5 0 16
-5 0 18
0 5 16
0 5 18
0 0 16
0 0 18
5 5 16
5 5 18
5 0 16
5 0 18
0 5 16
0 5 18
0 0 16
0 0 18
-5 -5 16
-5 -5 18
-5 0 16
-5 0 18
0 -5 16
0 -5 18
0 0 16
0 0 18
5 -5 16
5 -5 18
5 0 16
5 0 18
0 -5 16
0 -5 18
0 0 16
0 0 18
-7.5 7.5 14
-7.5 7.5 16
-7.5 2.5 14
-7.5 2.5 16
-2.5 7.5 14
-2.5 7.5 16
-2.5 2.5 14
-2.5 2.5 16
-2.5 7.5 14
2.5 7.5 14
-2.5 7.5 16
2.5 7.5 16
-2.5 2.5 14
2.5 2.5 14
-2.5 2.5 16
2.5 2.5 16
-7.5 -7.5 14
-7.5 -7.5 16
-7.5 -2.5 14
-7.5 -2.5 16
-2.5 -7.5 14
-2.5 -7.5 16
-2.5 -2.5 14
-2.5 -2.5 16
-2.5 -7.5 14
2.5 -7.5 14
-2.5 -7.5 16
2.5 -7.5 16
-2.5 -2.5 14
2.5 -2.5 14
-2.5 -2.5 16
2.5 -2.5 16
7.5 7.5 14
7.5 7.5 16
7.5 2.5 14
7.5 2.5 16
2.5 7.5 14
2.5 7.5 16
2.5 2.5 14
2.5 2.5 16
7.5 -7.5 14
7.5 -7.5 16
7.5 -2.5 14
7.5 -2.5 16
2.5 -7.5 14
2.5 -7.5 16
2.5 -2.5 14
2.5 -2.5 16
-7.5 -2.5 14
-7.5 2.5 14
-7.5 -2.5 16
-7.5 2.5 16
-2.5 -2.5 14
-2.5 2.5 14
-2.5 -2.5 16
-2.5 2.5 16
-2.5 -2.5 14
-2.5 2.5 14
2.5 -2.5 14
2.5 2.5 14
-2.5 -2.5 16
-2.5 2.5 16
2.5 -2.5 16
2.5 2.5 16
7.5 -2.5 14
7.5 2.5 14
7.5 -2.5 16
7.5 2.5 16
2.5 -2.5 14
2.5 2.5 14
2.5 -2.5 16
2.5 2.5 16
-10 10 12
-10 10 14
-10 5 12
-10 5 14
-5 10 12
-5 10 14
-5 5 12
-5 5 14
-5 10 12
0 10 12
-5 10 14
0 10 14
-5 5 12
0 5 12
-5 5 14
0 5 14
-10 -10 12
-10 -10 14
-10 -5 12
-10 -5 14
-5 -10 12
-5 -10 14
-5 -5 12
-5 -5 14
-5 -10 12
0 -10 12
-5 -10 14
0 -10 14
-5 -5 12
0 -5 12
-5 -5 14
0 -5 14
0 10 12
5 10 12
0 10 14
5 10 14
0 5 12
5 5 12
0 5 14
5 5 14
0 -10 12
5 -10 12
0 -10 14
5 -10 14
0 -5 12
5 -5 12
0 -5 14
5 -5 14
-10 -5 12
-10 0 12
-10 -5 14
-10 0 14
-5 -5 12
-5 0 12
-5 -5 14
-5 0 14
-5 -5 12
-5 0 12
0 -5 12
0 0 12
-5 -5 14
-5 0 14
0 -5 14
0 0 14
0 -5 12
5 -5 12
0 0 12
5 0 12
0 -5 14
5 -5 14
0 0 14
5 0 14
10 10 12
10 10 14
10 5 12
10 5 14
5 10 12
5 10 14
5 5 12
5 5 14
10 -10 12
10 -10 14
10 -5 12
10 -5 14
5 -10 12
5 -10 14
5 -5 12
5 -5 14
10 -5 12
10 0 12
10 -5 14
10 0 14
5 -5 12
5 0 12
5 -5 14
5 0 14
-10 0 12
-10 5 12
-10 0 14
-10 5 14
-5 0 12
-5 5 12
-5 0 14
-5 5 14
-5 0 12
-5 5 12
0 0 12
0 5 12
-5 0 14
-5 5 14
0 0 14
0 5 14
0 0 12
0 5 12
5 0 12
5 5 12
0 0 14
0 5 14
5 0 14
5 5 14
10 0 12
10 5 12
10 0 14
10 5 14
5 0 12
5 5 12
5 0 14
5 5 14
-12.5 12.5 10
-12.5 12.5 12
-12.5 7.5 10
-12.5 7.5 12
-7.5 12.5 10
-7.5 12.5 12
-7.5 7.5 10
-7.5 7.5 12
-7.5 12.5 10
-2.5 12.5 10
-7.5 12.5 12
-2.5 12.5 12
-7.5 7.5 10
-2.5 7.5 10
-7.5 7.5 12
-2.5 7.5 12
-12.5 -12.5 10
-12.5 -12.5 12
-12.5 -7.5 10
-12.5 -7.5 12
-7.5 -12.5 10
-7.5 -12.5 12
-7.5 -7.5 10
-7.5 -7.5 12
-7.5 -12.5 10
-2.5 -12.5 10
-7.5 -12.5 12
-2.5 -12.5 12
-7.5 -7.5 10
-2.5 -7.5 10
-7.5 -7.5 12
-2.5 -7.5 12
-2.5 12.5 10
2.5 12.5 10
-2.5 12.5 12
2.5 12.5 12
-2.5 7.5 10
2.5 7.5 10
-2.5 7.5 12
2.5 7.5 12
-2.5 -12.5 10
2.5 -12.5 10
-2.5 -12.5 12
2.5 -12.5 12
-2.5 -7.5 10
2.5 -7.5 10
-2.5 -7.5 12
2.5 -7.5 12
-12.5 -7.5 10
-12.5 -2.5 10
-12.5 -7.5 12
-12.5 -2.5 12
-7.5 -7.5 10
-7.5 -2.5 10
-7.5 -7.5 12
-7.5 -2.5 12
-7.5 -7.5 10
-7.5 -2.5 10
-2.5 -7.5 10
-2.5 -2.5 10
-7.5 -7.5 12
-7.5 -2.5 12
-2.5 -7.5 12
-2.5 -2.5 12
-2.5 -7.5 10
2.5 -7.5 10
-2.5 -2.5 10
2.5 -2.5 10
-2.5 -7.5 12
2.5 -7.5 12
-2.5 -2.5 12
2.5 -2.5 12
2.5 12.5 10
7.5 12.5 10
2.5 12.5 12
7.5 12.5 12
2.5 7.5 10
7.5 7.5 10
2.5 7.5 12
7.5 7.5 12
2.5 -12.5 10
7.5 -12.5 10
2.5 -12.5 12
7.5 -12.5 12
2.5 -7.5 10
7.5 -7.5 10
2.5 -7.5 12
7.5 -7.5 12
2.5 -7.5 10
7.5 -7.5 10
2.5 -2.5 10
7.5 -2.5 10
2.5 -7.5 12
7.5 -7.5 12
2.5 -2.5 12
7.5 -2.5 12
-12.5 -2.5 10
-12.5 2.5 10
-12.5 -2.5 12
-12.5 2.5 12
-7.5 -2.5 10
-7.5 2.5 10
-7.5 -2.5 12
-7.5 2.5 12
-7.5 -2.5 10
-7.5 2.5 10
-2.5 -2.5 10
-2.5 2.5 10
-7.5 -2.5 12
-7.5 2.5 12
-2.5 -2.5 12
-2.5 2.5 12
-2.5 -2.5 10
-2.5 2.5 10
2.5 -2.5 10
2.5 2.5 10
-2.5 -2.5 12
-2.5 2.5 12
2.5 -2.5 12
2.5 2.5 12
2.5 -2.5 10
7.5 -2.5 10
2.5 2.5 10
7.5 2.5 10
2.5 -2.5 12
7.5 -2.5 12
2.5 2.5 12
7.5 2.5 12
12.5 12.5 10
12.5 12.5 12
12.5 7.5 10
12.5 7.5 12
7.5 12.5 10
7.5 12.5 12
7.5 7.5 10
7.5 7.5 12
12.5 -12.5 10
12.5 -12.5 12
12.5 -7.5 10
12.5 -7.5 12
7.5 -12.5 10
7.5 -12.5 12
7.5 -7.5 10
7.5 -7.5 12
12.5 -7.5 10
12.5 -2.5 10
12.5 -7.5 12
12.5 -2.5 12
7.5 -7.5 10
7.5 -2.5 10
7.5 -7.5 12
7.5 -2.5 12
12.5 -2.5 10
12.5 2.5 10
12.5 -2.5 12
12.5 2.5 12
7.5 -2.5 10
7.5 2.5 10
7.5 -2.5 12
7.5 2.5 12
-12.5 2.5 10
-12.5 7.5 10
-12.5 2.5 12
-12.5 7.5 12
-7.5 2.5 10
-7.5 7.5 10
-7.5 2.5 12
-7.5 7.5 12
-7.5 2.5 10
-7.5 7.5 10
-2.5 2.5 10
-2.5 7.5 10
-7.5 2.5 12
-7.5 7.5 12
-2.5 2.5 12
-2.5 7.5 12
-2.5 2.5 10
-2.5 7.5 10
2.5 2.5 10
2.5 7.5 10
-2.5 2.5 12
-2.5 7.5 12
2.5 2.5 12
2.5 7.5 12
2.5 2.5 10
2.5 7.5 10
7.5 2.5 10
7.5 7.5 10
2.5 2.5 12
2.5 7.5 12
7.5 2.5 12
7.5 7.5 12
12.5 2.5 10
12.5 7.5 10
12.5 2.5 12
12.5 7.5 12
7.5 2.5 10
7.5 7.5 10
7.5 2.5 12
7.5 7.5 12
-15 15 8
-15 15 10
-15 10 8
-15 10 10
-10 15 8
-10 15 10
-10 10 8
-10 10 10
-10 15 8
-5 15 8
-10 15 10
-5 15 10
-10 10 8
-5 10 8
-10 10 10
-5 10 10
-15 -15 8
-15 -15 10
-15 -10 8
-15 -10 10
-10 -15 8
-10 -15 10
-10 -10 8
-10 -10 10
-10 -15 8
-5 -15 8
-10 -15 10
-5 -15 10
-10 -10 8
-5 -10 8
-10 -10 10
-5 -10 10
-5 15 8
0 15 8
-5 15 10
0 15 10
-5 10 8
0 10 8
-5 10 10
0 10 10
-5 -15 8
0 -15 8
-5 -15 10
0 -15 10
-5 -10 8
0 -10 8
-5 -10 10
0 -10 10
-15 -10 8
-15 -5 8
-15 -10 10
-15 -5 10
-10 -10 8
-10 -5 8
-10 -10 10
-10 -5 10
-10 -10 8
-10 -5 8
-5 -10 8
-5 -5 8
-10 -10 10
-10 -5 10
-5 -10 10
-5 -5 10
-5 -10 8
0 -10 8
-5 -5 8
0 -5 8
-5 -10 10
0 -10 10
-5 -5 10
0 -5 10
0 15 8
5 15 8
0 15 10
5 15 10
0 10 8
5 10 8
0 10 10
5 10 10
0 -15 8
5 -15 8
0 -15 10
5 -15 10
0 -10 8
5 -10 8
0 -10 10
5 -10 10
0 -10 8
5 -10 8
0 -5 8
5 -5 8
0 -10 10
5 -10 10
0 -5 10
5 -5 10
-15 -5 8
-15 0 8
-15 -5 10
-15 0 10
-10 -5 8
-10 0 8
-10 -5 10
-10 0 10
-10 -5 8
-10 0 8
-5 -5 8
-5 0 8
-10 -5 10
-10 0 10
-5 -5 10
-5 0 10
-5 -5 8
-5 0 8
0 -5 8
0 0 8
-5 -5 10
-5 0 10
0 -5 10
0 0 10
0 -5 8
5 -5 8
0 0 8
5 0 8
0 -5 10
5 -5 10
0 0 10
5 0 10
5 15 8
10 15 8
5 15 10
10 15 10
5 10 8
10 10 8
5 10 10
10 10 10
5 -15 8
10 -15 8
5 -15 10
10 -15 10
5 -10 8
10 -10 8
5 -10 10
10 -10 10
5 -10 8
10 -10 8
5 -5 8
10 -5 8
5 -10 10
10 -10 10
5 -5 10
10 -5 10
5 -5 8
10 -5 8
5 0 8
10 0 8
5 -5 10
10 -5 10
5 0 10
10 0 10
-15 0 8
-15 5 8
-15 0 10
-15 5 10
-10 0 8
-10 5 8
-10 0 10
-10 5 10
-10 0 8
-10 5 8
-5 0 8
-5 5 8
-10 0 10
-10 5 10
-5 0 10
-5 5 10
-5 0 8
-5 5 8
0 0 8
0 5 8
-5 0 10
-5 5 10
0 0 10
0 5 10
0 0 8
0 5 8
5 0 8
5 5 8
0 0 10
0 5 10
5 0 10
5 5 10
5 0 8
10 0 8
5 5 8
10 5 8
5 0 10
10 0 10
5 5 10
10 5 10
15 15 8
15 15 10
15 10 8
15 10 10
10 15 8
10 15 10
10 10 8
10 10 10
15 -15 8
15 -15 10
15 -10 8
15 -10 10
10 -15 8
10 -15 10
10 -10 8
10 -10 10
15 -10 8
15 -5 8
15 -10 10
15 -5 10
10 -10 8
10 -5 8
10 -10 10
10 -5 10
15 -5 8
15 0 8
15 -5 10
15 0 10
10 -5 8
10 0 8
10 -5 10
10 0 10
15 0 8
15 5 8
15 0 10
15 5 10
10 0 8
10 5 8
10 0 10
10 5 10
-15 5 8
-15 10 8
-15 5 10
-15 10 10
-10 5 8
-10 10 8
-10 5 10
-10 10 10
-10 5 8
-10 10 8
-5 5 8
-5 10 8
-10 5 10
-10 10 10
-5 5 10
-5 10 10
-5 5 8
-5 10 8
0 5 8
0 10 8
-5 5 10
-5 10 10
0 5 10
0 10 10
0 5 8
0 10 8
5 5 8
5 10 8
0 5 10
0 10 10
5 5 10
5 10 10
5 5 8
5 10 8
10 5 8
10 10 8
5 5 10
5 10 10
10 5 10
10 10 10
15 5 8
15 10 8
15 5 10
15 10 10
10 5 8
10 10 8
10 5 10
10 10 10
-17.5 17.5 6
-17.5 17.5 8
-17.5 12.5 6
-17.5 12.5 8
-12.5 17.5 6
-12.5 17.5 8
-12.5 12.5 6
-12.5 12.5 8
-12.5 17.5 6
-7.5 17.5 6
-12.5 17.5 8
-7.5 17.5 8
-12.5 12.5 6
-7.5 12.5 6
-12.5 12.5 8
-7.5 12.5 8
-17.5 -17.5 6
-17.5 -17.5 8
-17.5 -12.5 6
-17.5 -12.5 8
-12.5 -17.5 6
-12.5 -17.5 8
-12.5 -12.5 6
-12.5 -12.5 8
-12.5 -17.5 6
-7.5 -17.5 6
-12.5 -17.5 8
-7.5 -17.5 8
-12.5 -12.5 6
-7.5 -12.5 6
-12.5 -12.5 8
-7.5 -12.5 8
-7.5 17.5 6
-2.5 17.5 6
-7.5 17.5 8
-2.5 17.5 8
-7.5 12.5 6
-2.5 12.5 6
-7.5 12.5 8
-2.5 12.5 8
-7.5 -17.5 6
-2.5 -17.5 6
-7.5 -17.5 8
-2.5 -17.5 8
-7.5 -12.5 6
-2.5 -12.5 6
-7.5 -12.5 8
-2.5 -12.5 8
-17.5 -12.5 6
-17.5 -7.5 6
-17.5 -12.5 8
-17.5 -7.5 8
-12.5 -12.5 6
-12.5 -7.5 6
-12.5 -12.5 8
-12.5 -7.5 8
-12.5 -12.5 6
-12.5 -7.5 6
-7.5 -12.5 6
-7.5 -7.5 6
-12.5 -12.5 8
-12.5 -7.5 8
-7.5 -12.5 8
-7.5 -7.5 8
-7.5 -12.5 6
-2.5 -12.5 6
-7.5 -7.5 6
-2.5 -7.5 6
-7.5 -12.5 8
-2.5 -12.5 8
-7.5 -7.5 8
-2.5 -7.5 8
-2.5 17.5 6
2.5 17.5 6
-2.5 17.5 8
2.5 17.5 8
-2.5 12.5 6
2.5 12.5 6
-2.5 12.5 8
2.5 12.5 8
-2.5 -17.5 6
2.5 -17.5 6
-2.5 -17.5 8
2.5 -17.5 8
-2.5 -12.5 6
2.5 -12.5 6
-2.5 -12.5 8
2.5 -12.5 8
-2.5 -12.5 6
2.5 -12.5 6
-2.5 -7.5 6
2.5 -7.5 6
-2.5 -12.5 8
2.5 -12.5 8
-2.5 -7.5 8
2.5 -7.5 8
-17.5 -7.5 6
-17.5 -2.5 6
-17.5 -7.5 8
-17.5 -2.5 8
-12.5 -7.5 6
-12.5 -2.5 6
-12.5 -7.5 8
-12.5 -2.5 8
-12.5 -7.5 6
-12.5 -2.5 6
-7.5 -7.5 6
-7.5 -2.5 6
-12.5 -7.5 8
-12.5 -2.5 8
-7.5 -7.5 8
-7.5 -2.5 8
-7.5 -7.5 6
-7.5 -2.5 6
-2.5 -7.5 6
-2.5 -2.5 6
-7.5 -7.5 8
-7.5 -2.5 8
-2.5 -7.5 8
-2.5 -2.5 8
-2.5 -7.5 6
2.5 -7.5 6
-2.5 -2.5 6
2.5 -2.5 6
-2.5 -7.5 8
2.5 -7.5 8
-2.5 -2.5 8
2.5 -2.5 8
2.5 17.5 6
7.5 17.5 6
2.5 17.5 8
7.5 17.5 8
2.5 12.5 6
7.5 12.5 6
2.5 12.5 8
7.5 12.5 8
2.5 -17.5 6
7.5 -17.5 6
2.5 -17.5 8
7.5 -17.5 8
2.5 -12.5 6
7.5 -12.5 6
2.5 -12.5 8
7.5 -12.5 8
2.5 -12.5 6
7.5 -12.5 6
2.5 -7.5 6
7.5 -7.5 6
2.5 -12.5 8
7.5 -12.5 8
2.5 -7.5 8
7.5 -7.5 8
2.5 -7.5 6
7.5 -7.5 6
2.5 -2.5 6
7.5 -2.5 6
2.5 -7.5 8
7.5 -7.5 8
2.5 -2.5 8
7.5 -2.5 8
-17.5 -2.5 6
-17.5 2.5 6
-17.5 -2.5 8
-17.5 2.5 8
-12.5 -2.5 6
-12.5 2.5 6
-12.5 -2.5 8
-12.5 2.5 8
-12.5 -2.5 6
-12.5 2.5 6
-7.5 -2.5 6
-7.5 2.5 6
-12.5 -2.5 8
-12.5 2.5 8
-7.5 -2.5 8
-7.5 2.5 8
-7.5 -2.5 6
-7.5 2.5 6
-2.5 -2.5 6
-2.5 2.5 6
-7.5 -2.5 8
-7.5 2.5 8
-2.5 -2.5 8
-2.5 2.5 8
-2.5 -2.5 6
-2.5 2.5 6
2.5 -2.5 6
2.5 2.5 6
-2.5 -2.5 8
-2.5 2.5 8
2.5 -2.5 8
2.5 2.5 8
2.5 -2.5 6
7.5 -2.5 6
2.5 2.5 6
7.5 2.5 6
2.5 -2.5 8
7.5 -2.5 8
2.5 2.5 8
7.5 2.5 8
7.5 17.5 6
12.5 17.5 6
7.5 17.5 8
12.5 17.5 8
7.5 12.5 6
12.5 12.5 6
7.5 12.5 8
12.5 12.5 8
7.5 -17.5 6
12.5 -17.5 6
7.5 -17.5 8
12.5 -17.5 8
7.5 -12.5 6
12.5 -12.5 6
7.5 -12.5 8
12.5 -12.5 8
7.5 -12.5 6
12.5 -12.5 6
7.5 -7.5 6
12.5 -7.5 6
7.5 -12.5 8
12.5 -12.5 8
7.5 -7.5 8
12.5 -7.5 8
7.5 -7.5 6
12.5 -7.5 6
7.5 -2.5 6
[...]
CELL_DATA 385
SCALARS id float
LOOKUP_TABLE default
0
1
2
3
4
5
6
7
8
9
10
11
12
13
14
15
16
17
18
19
20
21
22
23
24
25
26
27
28
29
30
31
32
33
34
35
36
37
38
39
40
41
42
43
44
45
46
47
48
49
50
51
52
53
54
55
56
57
58
59
60
61
62
63
64
65
66
67
68
69
70
71
72
73
74
75
76
77
78
79
80
81
82
83
84
85
86
87
88
89
90
91
92
93
94
95
96
97
98
99
100
101
102
103
104
105
106
107
108
109
110
111
112
113
114
115
116
117
118
119
120
121
122
123
124
125
126
127
128
129
130
131
132
133
134
135
136
137
138
139
140
141
142
143
144
145
146
147
148
149
150
151
152
153
154
155
156
157
158
159
160
161
162
163
164
165
166
167
168
169
170
171
172
173
174
175
176
177
178
179
180
181
182
183
184
185
186
187
188
189
190
191
192
193
194
195
196
197
198
199
200
201
202
203
204
205
206
207
208
209
210
211
212
213
214
215
216
217
218
219
220
221
222
223
224
225
226
227
228
229
230
231
232
233
234
235
236
237
238
239
240
241
242
243
244
245
246
247
248
249
250
251
252
253
254
255
256
257
258
259
260
261
262
263
264
265
266
267
268
269
270
271
272
273
274
275
276
277
278
279
280
281
282
283
284
285
286
287
288
289
290
291
292
293
294
295
296
297
298
299
300
301
302
303
304
305
306
307
308
309
310
311
312
313
314
315
316
317
318
319
320
321
322
323
324
325
326
327
328
329
330
331
332
333
334
335
336
337
338
339
340
341
342
343
344
345
346
347
348
349
350
351
352
353
354
355
356
357
358
359
360
361
362
363
364
365
366
367
368
369
370
371
372
373
374
375
376
377
378
379
380
381
382
383
384
 
SCALARS volume float
LOOKUP_TABLE default
50
50
50
50
50
50
50
50
50
50
50
50
50
50
50
50
50
50
50
50
50
50
50
50
50
50
50
50
50
50
50
50
50
50
50
50
50
50
50
50
50
50
50
50
50
50
50
50
50
50
50
50
50
50
50
50
50
50
50
50
50
50
50
50
50
50
50
50
50
50
50
50
50
50
50
50
50
50
50
50
50
50
50
50
50
50
50
50
50
50
50
50
50
50
50
50
50
50
50
50
50
50
50
50
50
50
50
50
50
50
50
50
50
50
50
50
50
50
50
50
50
50
50
50
50
50
50
50
50
50
50
50
50
50
50
50
50
50
50
50
50
50
50
50
50
50
50
50
50
50
50
50
50
50
50
50
50
50
50
50
50
50
50
50
50
50
50
50
50
50
50
50
50
50
50
50
50
50
50
50
50
50
50
50
50
50
50
50
50
50
50
50
50
50
50
50
50
50
50
50
50
50
50
50
50
50
50
50
50
50
50
50
50
50
50
50
50
50
50
50
50
50
50
50
50
50
50
50
50
50
50
50
50
50
50
50
50
50
50
50
50
50
50
50
50
50
50
50
50
50
50
50
50
50
50
50
50
50
50
50
50
50
50
50
50
50
50
50
50
50
50
50
50
50
50
50
50
50
50
50
50
50
50
50
50
50
50
50
50
50
50
50
50
50
50
50
50
50
50
50
50
50
50
50
50
50
50
50
50
50
50
50
50
50
50
50
50
50
50
50
50
50
50
50
50
50
50
50
50
50
50
50
50
50
50
50
50
50
50
50
50
50
50
50
50
50
50
50
50
50
50
50
50
50
50
50
50
50
50
50
50
50
50
50
50
50
50
50
50
50
50
50
50
50
50
50
50
50
50
50
50
50
50
50
50
 
SCALARS alpha float
LOOKUP_TABLE default
1.24196215172674
1.24196215172674
1.24196215172674
1.24196215172674
1.24196215172674
1.24196215172674
1.24196215172674
1.24196215172674
1.24196215172674
1.24196215172674
1.24196215172674
1.24196215172674
1.24196215172674
1.24196215172674
1.24196215172674
1.24196215172674
1.24196215172674
1.24196215172674
1.24196215172674
1.24196215172674
1.24196215172674
1.24196215172674
1.24196215172674
1.24196215172674
1.24196215172674
1.24196215172674
1.24196215172674
1.24196215172674
1.24196215172674
1.24196215172674
1.24196215172674
1.24196215172674
1.24196215172674
1.24196215172674
1.24196215172674
1.24196215172674
1.24196215172674
1.24196215172674
1.24196215172674
1.24196215172674
1.24196215172674
1.24196215172674
1.24196215172674
1.24196215172674
1.24196215172674
1.24196215172674
1.24196215172674
1.24196215172674
1.24196215172674
1.24196215172674
1.24196215172674
1.24196215172674
1.24196215172674
1.24196215172674
1.24196215172674
1.24196215172674
1.24196215172674
1.24196215172674
1.24196215172674
1.24196215172674
1.24196215172674
1.24196215172674
1.24196215172674
1.24196215172674
1.24196215172674
1.24196215172674
1.24196215172674
1.24196215172674
1.24196215172674
1.24196215172674
1.24196215172674
1.24196215172674
1.24196215172674
1.24196215172674
1.24196215172674
1.24196215172674
1.24196215172674
1.24196215172674
1.24196215172674
1.24196215172674
1.24196215172674
1.24196215172674
1.24196215172674
1.24196215172674
1.24196215172674
1.24196215172674
1.24196215172674
1.24196215172674
1.24196215172674
1.24196215172674
1.24196215172674
1.24196215172674
1.24196215172674
1.24196215172674
1.24196215172674
1.24196215172674
1.24196215172674
1.24196215172674
1.24196215172674
1.24196215172674
1.24196215172674
1.24196215172674
1.24196215172674
1.24196215172674
1.24196215172674
1.24196215172674
1.24196215172674
1.24196215172674
1.24196215172674
1.24196215172674
1.24196215172674
1.24196215172674
1.24196215172674
1.24196215172674
1.24196215172674
1.24196215172674
1.24196215172674
1.24196215172674
1.24196215172674
1.24196215172674
1.24196215172674
1.24196215172674
1.24196215172674
1.24196215172674
1.24196215172674
1.24196215172674
1.24196215172674
1.24196215172674
1.24196215172674
1.24196215172674
1.24196215172674
1.24196215172674
1.24196215172674
1.24196215172674
1.24196215172674
1.24196215172674
1.24196215172674
1.24196215172674
1.24196215172674
1.24196215172674
1.24196215172674
1.24196215172674
1.24196215172674
1.24196215172674
1.24196215172674
1.24196215172674
1.24196215172674
1.24196215172674
1.24196215172674
1.24196215172674
1.24196215172674
1.24196215172674
1.24196215172674
1.24196215172674
1.24196215172674
1.24196215172674
1.24196215172674
1.24196215172674
1.24196215172674
1.24196215172674
1.24196215172674
1.24196215172674
1.24196215172674
1.24196215172674
1.24196215172674
1.24196215172674
1.24196215172674
1.24196215172674
1.24196215172674
1.24196215172674
1.24196215172674
1.24196215172674
1.24196215172674
1.24196215172674
1.24196215172674
1.24196215172674
1.24196215172674
1.24196215172674
1.24196215172674
1.24196215172674
1.24196215172674
1.24196215172674
1.24196215172674
1.24196215172674
1.24196215172674
1.24196215172674
1.24196215172674
1.24196215172674
1.24196215172674
1.24196215172674
1.24196215172674
1.24196215172674
1.24196215172674
1.24196215172674
1.24196215172674
1.24196215172674
1.24196215172674
1.24196215172674
1.24196215172674
1.24196215172674
1.24196215172674
1.24196215172674
1.24196215172674
1.24196215172674
1.24196215172674
1.24196215172674
1.24196215172674
1.24196215172674
1.24196215172674
1.24196215172674
1.24196215172674
1.24196215172674
1.24196215172674
1.24196215172674
1.24196215172674
1.24196215172674
1.24196215172674
1.24196215172674
1.24196215172674
1.24196215172674
1.24196215172674
1.24196215172674
1.24196215172674
1.24196215172674
1.24196215172674
1.24196215172674
1.24196215172674
1.24196215172674
1.24196215172674
1.24196215172674
1.24196215172674
1.24196215172674
1.24196215172674
1.24196215172674
1.24196215172674
1.24196215172674
1.24196215172674
1.24196215172674
1.24196215172674
1.24196215172674
1.24196215172674
1.24196215172674
1.24196215172674
1.24196215172674
1.24196215172674
1.24196215172674
1.24196215172674
1.24196215172674
1.24196215172674
1.24196215172674
1.24196215172674
1.24196215172674
1.24196215172674
1.24196215172674
1.24196215172674
1.24196215172674
1.24196215172674
1.24196215172674
1.24196215172674
1.24196215172674
1.24196215172674
1.24196215172674
1.24196215172674
1.24196215172674
1.24196215172674
1.24196215172674
1.24196215172674
1.24196215172674
1.24196215172674
1.24196215172674
1.24196215172674
1.24196215172674
1.24196215172674
1.24196215172674
1.24196215172674
1.24196215172674
1.24196215172674
1.24196215172674
1.24196215172674
1.24196215172674
1.24196215172674
1.24196215172674
1.24196215172674
1.24196215172674
1.24196215172674
1.24196215172674
1.24196215172674
1.24196215172674
1.24196215172674
1.24196215172674
1.24196215172674
1.24196215172674
1.24196215172674
1.24196215172674
1.24196215172674
1.24196215172674
1.24196215172674
1.24196215172674
1.24196215172674
1.24196215172674
1.24196215172674
1.24196215172674
1.24196215172674
1.24196215172674
1.24196215172674
1.24196215172674
1.24196215172674
1.24196215172674
1.24196215172674
1.24196215172674
1.24196215172674
1.24196215172674
1.24196215172674
1.24196215172674
1.24196215172674
1.24196215172674
1.24196215172674
1.24196215172674
1.24196215172674
1.24196215172674
1.24196215172674
1.24196215172674
1.24196215172674
1.24196215172674
1.24196215172674
1.24196215172674
1.24196215172674
1.24196215172674
1.24196215172674
1.24196215172674
1.24196215172674
1.24196215172674
1.24196215172674
1.24196215172674
1.24196215172674
1.24196215172674
1.24196215172674
1.24196215172674
1.24196215172674
1.24196215172674
1.24196215172674
1.24196215172674
1.24196215172674
1.24196215172674
1.24196215172674
1.24196215172674
1.24196215172674
1.24196215172674
1.24196215172674
1.24196215172674
1.24196215172674
1.24196215172674
1.24196215172674
1.24196215172674
1.24196215172674
1.24196215172674
1.24196215172674
1.24196215172674
1.24196215172674
1.24196215172674
1.24196215172674
1.24196215172674
1.24196215172674
1.24196215172674
1.24196215172674
1.24196215172674
1.24196215172674
1.24196215172674
1.24196215172674
1.24196215172674
1.24196215172674
1.24196215172674
1.24196215172674
1.24196215172674
1.24196215172674
1.24196215172674
1.24196215172674
1.24196215172674
1.24196215172674
1.24196215172674
1.24196215172674
1.24196215172674
1.24196215172674
1.24196215172674
1.24196215172674
 
SCALARS beta float
LOOKUP_TABLE default
1.54544946116677
1.54544946116677
1.54544946116677
1.54544946116677
1.54544946116677
1.54544946116677
1.54544946116677
1.54544946116677
1.54544946116677
1.54544946116677
1.54544946116677
1.54544946116677
1.54544946116677
1.54544946116677
1.54544946116677
1.54544946116677
1.54544946116677
1.54544946116677
1.54544946116677
1.54544946116677
1.54544946116677
1.54544946116677
1.54544946116677
1.54544946116677
1.54544946116677
1.54544946116677
1.54544946116677
1.54544946116677
1.54544946116677
1.54544946116677
1.54544946116677
1.54544946116677
1.54544946116677
1.54544946116677
1.54544946116677
1.54544946116677
1.54544946116677
1.54544946116677
1.54544946116677
1.54544946116677
1.54544946116677
1.54544946116677
1.54544946116677
1.54544946116677
1.54544946116677
1.54544946116677
1.54544946116677
1.54544946116677
1.54544946116677
1.54544946116677
1.54544946116677
1.54544946116677
1.54544946116677
1.54544946116677
1.54544946116677
1.54544946116677
1.54544946116677
1.54544946116677
1.54544946116677
1.54544946116677
1.54544946116677
1.54544946116677
1.54544946116677
1.54544946116677
1.54544946116677
1.54544946116677
1.54544946116677
1.54544946116677
1.54544946116677
1.54544946116677
1.54544946116677
1.54544946116677
1.54544946116677
1.54544946116677
1.54544946116677
1.54544946116677
1.54544946116677
1.54544946116677
1.54544946116677
1.54544946116677
1.54544946116677
1.54544946116677
1.54544946116677
1.54544946116677
1.54544946116677
1.54544946116677
1.54544946116677
1.54544946116677
1.54544946116677
1.54544946116677
1.54544946116677
1.54544946116677
1.54544946116677
1.54544946116677
1.54544946116677
1.54544946116677
1.54544946116677
1.54544946116677
1.54544946116677
1.54544946116677
1.54544946116677
1.54544946116677
1.54544946116677
1.54544946116677
1.54544946116677
1.54544946116677
1.54544946116677
1.54544946116677
1.54544946116677
1.54544946116677
1.54544946116677
1.54544946116677
1.54544946116677
1.54544946116677
1.54544946116677
1.54544946116677
1.54544946116677
1.54544946116677
1.54544946116677
1.54544946116677
1.54544946116677
1.54544946116677
1.54544946116677
1.54544946116677
1.54544946116677
1.54544946116677
1.54544946116677
1.54544946116677
1.54544946116677
1.54544946116677
1.54544946116677
1.54544946116677
1.54544946116677
1.54544946116677
1.54544946116677
1.54544946116677
1.54544946116677
1.54544946116677
1.54544946116677
1.54544946116677
1.54544946116677
1.54544946116677
1.54544946116677
1.54544946116677
1.54544946116677
1.54544946116677
1.54544946116677
1.54544946116677
1.54544946116677
1.54544946116677
1.54544946116677
1.54544946116677
1.54544946116677
1.54544946116677
1.54544946116677
1.54544946116677
1.54544946116677
1.54544946116677
1.54544946116677
1.54544946116677
1.54544946116677
1.54544946116677
1.54544946116677
1.54544946116677
1.54544946116677
1.54544946116677
1.54544946116677
1.54544946116677
1.54544946116677
1.54544946116677
1.54544946116677
1.54544946116677
1.54544946116677
1.54544946116677
1.54544946116677
1.54544946116677
1.54544946116677
1.54544946116677
1.54544946116677
1.54544946116677
1.54544946116677
1.54544946116677
1.54544946116677
1.54544946116677
1.54544946116677
1.54544946116677
1.54544946116677
1.54544946116677
1.54544946116677
1.54544946116677
1.54544946116677
1.54544946116677
1.54544946116677
1.54544946116677
1.54544946116677
1.54544946116677
1.54544946116677
1.54544946116677
1.54544946116677
1.54544946116677
1.54544946116677
1.54544946116677
1.54544946116677
1.54544946116677
1.54544946116677
1.54544946116677
1.54544946116677
1.54544946116677
1.54544946116677
1.54544946116677
1.54544946116677
1.54544946116677
1.54544946116677
1.54544946116677
1.54544946116677
1.54544946116677
1.54544946116677
1.54544946116677
1.54544946116677
1.54544946116677
1.54544946116677
1.54544946116677
1.54544946116677
1.54544946116677
1.54544946116677
1.54544946116677
1.54544946116677
1.54544946116677
1.54544946116677
1.54544946116677
1.54544946116677
1.54544946116677
1.54544946116677
1.54544946116677
1.54544946116677
1.54544946116677
1.54544946116677
1.54544946116677
1.54544946116677
1.54544946116677
1.54544946116677
1.54544946116677
1.54544946116677
1.54544946116677
1.54544946116677
1.54544946116677
1.54544946116677
1.54544946116677
1.54544946116677
1.54544946116677
1.54544946116677
1.54544946116677
1.54544946116677
1.54544946116677
1.54544946116677
1.54544946116677
1.54544946116677
1.54544946116677
1.54544946116677
1.54544946116677
1.54544946116677
1.54544946116677
1.54544946116677
1.54544946116677
1.54544946116677
1.54544946116677
1.54544946116677
1.54544946116677
1.54544946116677
1.54544946116677
1.54544946116677
1.54544946116677
1.54544946116677
1.54544946116677
1.54544946116677
1.54544946116677
1.54544946116677
1.54544946116677
1.54544946116677
1.54544946116677
1.54544946116677
1.54544946116677
1.54544946116677
1.54544946116677
1.54544946116677
1.54544946116677
1.54544946116677
1.54544946116677
1.54544946116677
1.54544946116677
1.54544946116677
1.54544946116677
1.54544946116677
1.54544946116677
1.54544946116677
1.54544946116677
1.54544946116677
1.54544946116677
1.54544946116677
1.54544946116677
1.54544946116677
1.54544946116677
1.54544946116677
1.54544946116677
1.54544946116677
1.54544946116677
1.54544946116677
1.54544946116677
1.54544946116677
1.54544946116677
1.54544946116677
1.54544946116677
1.54544946116677
1.54544946116677
1.54544946116677
1.54544946116677
1.54544946116677
1.54544946116677
1.54544946116677
1.54544946116677
1.54544946116677
1.54544946116677
1.54544946116677
1.54544946116677
1.54544946116677
1.54544946116677
1.54544946116677
1.54544946116677
1.54544946116677
1.54544946116677
1.54544946116677
1.54544946116677
1.54544946116677
1.54544946116677
1.54544946116677
1.54544946116677
1.54544946116677
1.54544946116677
1.54544946116677
1.54544946116677
1.54544946116677
1.54544946116677
1.54544946116677
1.54544946116677
1.54544946116677
1.54544946116677
1.54544946116677
1.54544946116677
1.54544946116677
1.54544946116677
1.54544946116677
1.54544946116677
1.54544946116677
1.54544946116677
1.54544946116677
1.54544946116677
1.54544946116677
1.54544946116677
1.54544946116677
1.54544946116677
1.54544946116677
1.54544946116677
1.54544946116677
1.54544946116677
1.54544946116677
1.54544946116677
1.54544946116677
1.54544946116677
1.54544946116677
1.54544946116677
1.54544946116677
1.54544946116677
1.54544946116677
1.54544946116677
1.54544946116677
1.54544946116677
1.54544946116677
1.54544946116677
1.54544946116677
1.54544946116677
1.54544946116677
1.54544946116677
1.54544946116677
1.54544946116677
1.54544946116677
 
SCALARS order float
LOOKUP_TABLE default
6
6
6
6
6
6
6
6
6
6
6
6
6
6
6
6
6
6
6
6
6
6
6
6
6
6
6
6
6
6
6
6
6
6
6
6
6
6
6
6
6
6
6
6
6
6
6
6
6
6
6
6
6
6
6
6
6
6
6
6
6
6
6
6
6
6
6
6
6
6
6
6
6
6
6
6
6
6
6
6
6
6
6
6
6
6
6
6
6
6
6
6
6
6
6
6
6
6
6
6
6
6
6
6
6
6
6
6
6
6
6
6
6
6
6
6
6
6
6
6
6
6
6
6
6
6
6
6
6
6
6
6
6
6
6
6
6
6
6
6
6
6
6
6
6
6
6
6
6
6
6
6
6
6
6
6
6
6
6
6
6
6
6
6
6
6
6
6
6
6
6
6
6
6
6
6
6
6
6
6
6
6
6
6
6
6
6
6
6
6
6
6
6
6
6
6
6
6
6
6
6
6
6
6
6
6
6
6
6
6
6
6
6
6
6
6
6
6
6
6
6
6
6
6
6
6
6
6
6
6
6
6
6
6
6
6
6
6
6
6
6
6
6
6
6
6
6
6
6
6
6
6
6
6
6
6
6
6
6
6
6
6
6
6
6
6
6
6
6
6
6
6
6
6
6
6
6
6
6
6
6
6
6
6
6
6
6
6
6
6
6
6
6
6
6
6
6
6
6
6
6
6
6
6
6
6
6
6
6
6
6
6
6
6
6
6
6
6
6
6
6
6
6
6
6
6
6
6
6
6
6
6
6
6
6
6
6
6
6
6
6
6
6
6
6
6
6
6
6
6
6
6
6
6
6
6
6
6
6
6
6
6
6
6
6
6
6
6
6
6
6
6
6
6
6
6
6
6
6
6
6
6
6
6
6
 
SCALARS aspectRatio float
LOOKUP_TABLE default
3.67423461417375
3.67423461417341
3.6742346141749
3.67423461417375
3.67423461417341
3.67423461417341
3.6742346141749
3.67423461417375
3.67423461417341
3.6742346141749
3.67423461417341
3.67423461417341
3.6742346141749
3.6742346141749
3.67423461417341
3.6742346141749
3.67423461417375
3.67423461417341
3.6742346141749
3.67423461417341
3.67423461417341
3.6742346141749
3.6742346141749
3.6742346141749
3.67423461417341
3.6742346141749
3.67423461417341
3.6742346141749
3.6742346141749
3.6742346141749
3.67423461417341
3.6742346141749
3.67423461417375
3.67423461417341
3.6742346141749
3.67423461417341
3.67423461417341
3.6742346141749
3.6742346141749
3.6742346141749
3.67423461417341
3.6742346141749
3.67423461417341
3.6742346141749
3.6742346141749
3.6742346141749
3.6742346141749
3.67423461417341
3.6742346141749
3.6742346141749
3.67423461417341
3.6742346141749
3.6742346141749
3.6742346141749
3.6742346141749
3.67423461417341
3.6742346141749
3.67423461417375
3.67423461417341
3.6742346141749
3.67423461417341
3.67423461417341
3.6742346141749
3.6742346141749
3.6742346141749
3.67423461417341
3.6742346141749
3.67423461417341
3.6742346141749
3.6742346141749
3.6742346141749
3.6742346141749
3.67423461417341
3.6742346141749
3.6742346141749
3.67423461417341
3.6742346141749
3.6742346141749
3.6742346141749
3.6742346141749
3.6742346141749
3.67423461417341
3.6742346141749
3.6742346141749
3.6742346141749
3.67423461417341
3.6742346141749
3.6742346141749
3.6742346141749
3.6742346141749
3.6742346141749
3.67423461417341
3.6742346141749
3.67423461417375
3.67423461417341
3.6742346141749
3.67423461417341
3.67423461417341
3.6742346141749
3.6742346141749
3.6742346141749
3.67423461417341
3.6742346141749
3.67423461417341
3.6742346141749
3.6742346141749
3.6742346141749
3.6742346141749
3.67423461417341
3.6742346141749
3.6742346141749
3.67423461417341
3.6742346141749
3.6742346141749
3.6742346141749
3.6742346141749
3.6742346141749
3.67423461417341
3.6742346141749
3.6742346141749
3.6742346141749
3.67423461417341
3.6742346141749
3.6742346141749
3.6742346141749
3.6742346141749
3.6742346141749
3.6742346141749
3.67423461417341
3.6742346141749
3.6742346141749
3.6742346141749
3.6742346141749
3.67423461417341
3.6742346141749
3.6742346141749
3.6742346141749
3.6742346141749
3.6742346141749
3.6742346141749
3.67423461417341
3.6742346141749
3.67423461417375
3.67423461417341
3.6742346141749
3.67423461417341
3.67423461417341
3.6742346141749
3.6742346141749
3.6742346141749
3.67423461417341
3.6742346141749
3.67423461417341
3.6742346141749
3.6742346141749
3.6742346141749
3.6742346141749
3.67423461417341
3.6742346141749
3.6742346141749
3.67423461417341
3.6742346141749
3.6742346141749
3.6742346141749
3.6742346141749
3.6742346141749
3.67423461417341
3.6742346141749
3.6742346141749
3.6742346141749
3.67423461417341
3.6742346141749
3.6742346141749
3.6742346141749
3.6742346141749
3.6742346141749
3.6742346141749
3.67423461417341
3.6742346141749
3.6742346141749
3.6742346141749
3.6742346141749
3.67423461417341
3.6742346141749
3.6742346141749
3.6742346141749
3.6742346141749
3.6742346141749
3.6742346141749
3.6742346141749
3.67423461417341
3.6742346141749
3.6742346141749
3.6742346141749
3.6742346141749
3.6742346141749
3.67423461417341
3.6742346141749
3.6742346141749
3.6742346141749
3.6742346141749