# vtk DataFile Version 3.0
Voronoi results
ASCII
 
DATASET UNSTRUCTURED_GRID
POINTS 80 float
-0 -0 -0
0 0 2
0 5 0
-0 5 2
5 0 0
5 -0 2
5 5 -0
5 5 2
-0 -0 -0
0 0 2
0 10 0
-0 10 2
10 0 0
10 -0 2
10 10 -0
10 10 2
-0 -0 -0
0 0 2
0 15 0
-0 15 2
15 0 0
15 -0 2
15 15 -0
15 15 2
-0 -0 -0
0 0 2
0 20 0
-0 20 2
20 0 0
20 -0 2
20 20 -0
20 20 2
-0 -0 -0
0 0 2
0 25 0
-0 25 2
25 0 0
25 -0 2
25 25 -0
25 25 2
-0 -0 -0
0 0 2
0 30 0
-0 30 2
30 0 0
30 -0 2
30 30 -0
30 30 2
-0 -0 -0
0 0 2
0 35 0
-0 35 2
35 0 0
35 -0 2
35 35 -0
35 35 2
-0 -0 -0
0 0 2
0 40 0
-0 40 2
40 0 0
40 -0 2
40 40 -0
40 40 2
-0 -0 -0
0 0 2
0 45 0
-0 45 2
45 0 0
45 -0 2
45 45 -0
45 45 2
-0 -0 -0
0 0 2
0 50 0
-0 50 2
50 0 0
50 -0 2
50 50 -0
50 50 2
 
CELLS 10 320
31 6 4 0 1 3 2 4 4 6 7 5 4 0 4 5 1 4 2 3 7 6 4 0 2 6 4 4 1 5 7 3 
31 6 4 8 9 11 10 4 12 14 15 13 4 8 12 13 9 4 10 11 15 14 4 8 10 14 12 4 9 13 15 11 
31 6 4 16 17 19 18 4 20 22 23 21 4 16 20 21 17 4 18 19 23 22 4 16 18 22 20 4 17 21 23 19 
31 6 4 24 25 27 26 4 28 30 31 29 4 24 28 29 25 4 26 27 31 30 4 24 26 30 28 4 25 29 31 27 
31 6 4 32 33 35 34 4 36 38 39 37 4 32 36 37 33 4 34 35 39 38 4 32 34 38 36 4 33 37 39 35 
31 6 4 40 41 43 42 4 44 46 47 45 4 40 44 45 41 4 42 43 47 46 4 40 42 46 44 4 41 45 47 43 
31 6 4 48 49 51 50 4 52 54 55 53 4 48 52 53 49 4 50 51 55 54 4 48 50 54 52 4 49 53 55 51 
31 6 4 56 57 59 58 4 60 62 63 61 4 56 60 61 57 4 58 59 63 62 4 56 58 62 60 4 57 61 63 59 
31 6 4 64 65 67 66 4 68 70 71 69 4 64 68 69 65 4 66 67 71 70 4 64 66 70 68 4 65 69 71 67 
31 6 4 72 73 75 74 4 76 78 79 77 4 72 76 77 73 4 74 75 79 78 4 72 74 78 76 4 73 77 79 75 

 
CELL_TYPES 10
42
42
42
42
42
42
42
42
42
42
 
CELL_DATA 10
SCALARS id float
LOOKUP_TABLE default
0
1
2
3
4
5
6
7
8
9
 
SCALARS volume float
LOOKUP_TABLE default
50
200
450
800
1250
1800
2450
3200
4050
5000
 
SCALARS alpha float
LOOKUP_TABLE default
1.24196215172674
1.83950832558929
2.4625027219455
3.09102784763179
3.72161888129201
4.35320090329484
4.98533354406301
5.6178034054136
6.25049464367995
6.88333898163083
 
SCALARS beta float
LOOKUP_TABLE default
1.54544946116677
1.95852160866781
2.05649055878398
2.0926968392152
2.10980711216395
2.1191966158356
2.12489081789186
2.12859977906788
2.13114865692029
2.13297486840271
 
SCALARS order float
LOOKUP_TABLE default
6
6
6
6
6
6
6
6
6
6
 
SCALARS aspectRatio float
LOOKUP_TABLE default
3.67423461417375
7.14142842854005
10.6536378763267
14.1774468787515
17.7059312096177
21.2367605815854
24.76893215299
28.3019433961564
31.835514759448
35.3694783676378
 
SCALARS inscribedSphereRadius float
LOOKUP_TABLE default
1.0000000000005
1.0000000000005
1.0000000000005
1.0000000000005
1.0000000000005
1.0000000000005
1.0000000000005
1.0000000000005
1.0000000000005
1.0000000000005
