# vtk DataFile Version 3.0
Voronoi results
ASCII
 
DATASET UNSTRUCTURED_GRID
POINTS 160 float
0 0 20
-0 -0 19
-0 8 20
0 8 19
8 -0 20
8 0 19
8 8 20
8 8 19
0 0 10
-0 -0 9
-0 8 10
0 8 9
8 -0 10
8 0 9
8 8 10
8 8 9
-0 -0 10
0 0 11
0 8 10
-0 8 11
8 0 10
8 -0 11
8 8 10
8 8 11
0 0 9
-0 -0 8
-0 8 9
0 8 8
8 -0 9
8 0 8
8 8 9
8 8 8
-0 -0 11
0 0 12
0 8 11
-0 8 12
8 0 11
8 -0 12
8 8 11
8 8 12
0 0 8
-0 -0 7
-0 8 8
0 8 7
8 -0 8
8 0 7
8 8 8
8 8 7
-0 -0 12
0 0 13
0 8 12
-0 8 13
8 0 12
8 -0 13
8 8 12
8 8 13
0 0 7
-0 -0 6
-0 8 7
0 8 6
8 -0 7
8 0 6
8 8 7
8 8 6
-0 -0 13
0 0 14
0 8 13
-0 8 14
8 0 13
8 -0 14
8 8 13
8 8 14
0 0 6
-0 -0 5
-0 8 6
0 8 5
8 -0 6
8 0 5
8 8 6
8 8 5
-0 -0 14
0 0 15
0 8 14
-0 8 15
8 0 14
8 -0 15
8 8 14
8 8 15
0 0 5
-0 -0 4
-0 8 5
0 8 4
8 -0 5
8 0 4
8 8 5
8 8 4
-0 -0 15
0 0 16
0 8 15
-0 8 16
8 0 15
8 -0 16
8 8 15
8 8 16
0 0 4
-0 -0 3
-0 8 4
0 8 3
8 -0 4
8 0 3
8 8 4
8 8 3
-0 -0 16
0 0 17
0 8 16
-0 8 17
8 0 16
8 -0 17
8 8 16
8 8 17
0 0 3
-0 -0 2
-0 8 3
0 8 2
8 -0 3
8 0 2
8 8 3
8 8 2
-0 -0 17
0 0 18
0 8 17
-0 8 18
8 0 17
8 -0 18
8 8 17
8 8 18
0 0 2
-0 -0 1
-0 8 2
0 8 1
8 -0 2
8 0 1
8 8 2
8 8 1
-0 -0 18
0 0 19
0 8 18
-0 8 19
8 0 18
8 -0 19
8 8 18
8 8 19
-0 -0 -0
0 0 1
0 8 0
-0 8 1
8 0 0
8 -0 1
8 8 -0
8 8 1
 
CELLS 20 640
31 6 4 0 2 3 1 4 4 5 7 6 4 0 1 5 4 4 2 6 7 3 4 0 4 6 2 4 1 3 7 5 
31 6 4 8 10 11 9 4 12 13 15 14 4 8 9 13 12 4 10 14 15 11 4 8 12 14 10 4 9 11 15 13 
31 6 4 16 17 19 18 4 20 22 23 21 4 16 20 21 17 4 18 19 23 22 4 16 18 22 20 4 17 21 23 19 
31 6 4 24 26 27 25 4 28 29 31 30 4 24 25 29 28 4 26 30 31 27 4 24 28 30 26 4 25 27 31 29 
31 6 4 32 33 35 34 4 36 38 39 37 4 32 36 37 33 4 34 35 39 38 4 32 34 38 36 4 33 37 39 35 
31 6 4 40 42 43 41 4 44 45 47 46 4 40 41 45 44 4 42 46 47 43 4 40 44 46 42 4 41 43 47 45 
31 6 4 48 49 51 50 4 52 54 55 53 4 48 52 53 49 4 50 51 55 54 4 48 50 54 52 4 49 53 55 51 
31 6 4 56 58 59 57 4 60 61 63 62 4 56 57 61 60 4 58 62 63 59 4 56 60 62 58 4 57 59 63 61 
31 6 4 64 65 67 66 4 68 70 71 69 4 64 68 69 65 4 66 67 71 70 4 64 66 70 68 4 65 69 71 67 
31 6 4 72 74 75 73 4 76 77 79 78 4 72 73 77 76 4 74 78 79 75 4 72 76 78 74 4 73 75 79 77 
31 6 4 80 81 83 82 4 84 86 87 85 4 80 84 85 81 4 82 83 87 86 4 80 82 86 84 4 81 85 87 83 
31 6 4 88 90 91 89 4 92 93 95 94 4 88 89 93 92 4 90 94 95 91 4 88 92 94 90 4 89 91 95 93 
31 6 4 96 97 99 98 4 100 102 103 101 4 96 100 101 97 4 98 99 103 102 4 96 98 102 100 4 97 101 103 99 
31 6 4 104 106 107 105 4 108 109 111 110 4 104 105 109 108 4 106 110 111 107 4 104 108 110 106 4 105 107 111 109 
31 6 4 112 113 115 114 4 116 118 119 117 4 112 116 117 113 4 114 115 119 118 4 112 114 118 116 4 113 117 119 115 
31 6 4 120 122 123 121 4 124 125 127 126 4 120 121 125 124 4 122 126 127 123 4 120 124 126 122 4 121 123 127 125 
31 6 4 128 129 131 130 4 132 134 135 133 4 128 132 133 129 4 130 131 135 134 4 128 130 134 132 4 129 133 135 131 
31 6 4 136 138 139 137 4 140 141 143 142 4 136 137 141 140 4 138 142 143 139 4 136 140 142 138 4 137 139 143 141 
31 6 4 144 145 147 146 4 148 150 151 149 4 144 148 149 145 4 146 147 151 150 4 144 146 150 148 4 145 149 151 147 
31 6 4 152 153 155 154 4 156 158 159 157 4 152 156 157 153 4 154 155 159 158 4 152 154 158 156 4 153 157 159 155 

 
CELL_TYPES 20
42
42
42
42
42
42
42
42
42
42
42
42
42
42
42
42
42
42
42
42
 
CELL_DATA 20
SCALARS id float
LOOKUP_TABLE default
0
1
2
3
4
5
6
7
8
9
10
11
12
13
14
15
16
17
18
19
 
SCALARS volume float
LOOKUP_TABLE default
64.0000000000001
64
64
64.0000000000001
64
64
64
64
64
64
64
64
64
64
63.9999999999999
64
64.0000000000001
64
64.0000000000001
64
 
SCALARS alpha float
LOOKUP_TABLE default
2.58794251795837
2.58794251795837
2.58794251795837
2.58794251795837
2.58794251795837
2.58794251795837
2.58794251795837
2.58794251795837
2.58794251795837
2.58794251795837
2.58794251795837
2.58794251795837
2.58794251795837
2.58794251795837
2.58794251795837
2.58794251795837
2.58794251795837
2.58794251795837
2.58794251795837
2.58794251795837
 
SCALARS beta float
LOOKUP_TABLE default
2.06640917787526
2.06640917787526
2.06640917787526
2.06640917787526
2.06640917787526
2.06640917787526
2.06640917787526
2.06640917787526
2.06640917787526
2.06640917787526
2.06640917787526
2.06640917787526
2.06640917787526
2.06640917787526
2.06640917787526
2.06640917787526
2.06640917787526
2.06640917787526
2.06640917787526
2.06640917787526
 
SCALARS order float
LOOKUP_TABLE default
6
6
6
6
6
6
6
6
6
6
6
6
6
6
6
6
6
6
6
6
 
SCALARS aspectRatio float
LOOKUP_TABLE default
11.357816691602
11.357816691602
11.357816691602
11.357816691602
11.357816691602
11.357816691602
11.357816691602
11.357816691602
11.357816691602
11.357816691602
11.357816691602
11.357816691602
11.357816691602
11.357816691602
11.357816691602
11.357816691602
11.357816691602
11.357816691602
11.357816691602
11.3578166915907
 
SCALARS inscribedSphereRadius float
LOOKUP_TABLE default
0.5
0.5
0.5
0.5
0.5
0.5
0.5
0.5
0.5
0.5
0.5
0.5
0.5
0.5
0.5
0.5
0.5
0.5
0.5
0.5000000000005
