# vtk DataFile Version 3.0
Voronoi results
ASCII
 
DATASET UNSTRUCTURED_GRID
POINTS 24 float
2 2 1
2 2 2
2 4 1
2 4 2
4 2 1
4 2 2
4 4 1
4 4 2
6 2 1
6 2 2
6 4 1
6 4 2
8 2 1
8 2 2
8 4 1
8 4 2
0 0 0
0 0 1
0 6 0
0 6 1
10 0 0
10 0 1
10 6 0
10 6 1
 
CELLS 3 96
31 6 4 0 1 3 2 4 4 6 7 5 4 0 4 5 1 4 2 3 7 6 4 0 2 6 4 4 1 5 7 3 
31 6 4 8 9 11 10 4 12 14 15 13 4 8 12 13 9 4 10 11 15 14 4 8 10 14 12 4 9 13 15 11 
31 6 4 16 17 19 18 4 20 22 23 21 4 16 20 21 17 4 18 19 23 22 4 16 18 22 20 4 17 21 23 19 

 
CELL_TYPES 3
42
42
42
 
CELL_DATA 3
SCALARS id float
LOOKUP_TABLE default
0
1
2
 
SCALARS volume float
LOOKUP_TABLE default
4
4
60
 
SCALARS alpha float
LOOKUP_TABLE default
1.13547777957297
1.13547777957297
2.65549930781634
 
SCALARS beta float
LOOKUP_TABLE default
1.33180736863474
1.33180736863474
5.14290769638623
 
SCALARS order float
LOOKUP_TABLE default
6
6
6
 
SCALARS aspectRatio float
LOOKUP_TABLE default
3
3
11.7046999107094
 
SCALARS inscribedSphereRadius float
LOOKUP_TABLE default
0.5
0.5
0.5000000000005
