# vtk DataFile Version 3.0
Voronoi results
ASCII
 
DATASET UNSTRUCTURED_GRID
POINTS 16 float
0 0 0
0 0 1
0 4 0
0 4 1
40 0 0
40 0 1
40 4 0
40 4 1
0.1 0.5 1
0.1 0.5 2
0.1 3.5 1
0.1 3.5 2
3.1 0.5 1
3.1 0.5 2
3.1 3.5 1
3.1 3.5 2
 
CELLS 2 64
31 6 4 0 1 3 2 4 4 6 7 5 4 0 4 5 1 4 2 3 7 6 4 0 2 6 4 4 1 5 7 3 
31 6 4 8 9 11 10 4 12 14 15 13 4 8 12 13 9 4 10 11 15 14 4 8 10 14 12 4 9 13 15 11 

 
CELL_TYPES 2
42
42
 
CELL_DATA 2
SCALARS id float
LOOKUP_TABLE default
0
1
 
SCALARS volume float
LOOKUP_TABLE default
160
9
 
SCALARS alpha float
LOOKUP_TABLE default
8.02124237370221
1.35597371372893
 
SCALARS beta float
LOOKUP_TABLE default
9.77691452762852
1.69286281730505
 
SCALARS order float
LOOKUP_TABLE default
6
6
 
SCALARS aspectRatio float
LOOKUP_TABLE default
40.2119385257271
4.35889894354067
 
SCALARS inscribedSphereRadius float
LOOKUP_TABLE default
0.5000000000005
0.5
