# vtk DataFile Version 3.0
Voronoi results
ASCII
 
DATASET UNSTRUCTURED_GRID
POINTS 16 float
2 2 2
2 2 3
2 4 2
2 4 3
4 2 2
4 2 3
4 4 2
4 4 3
0 0 0
0 0 1
0 6 0
0 6 1
10 0 0
10 0 1
10 6 0
10 6 1
 
CELLS 2 64
31 6 4 0 1 3 2 4 4 6 7 5 4 0 4 5 1 4 2 3 7 6 4 0 2 6 4 4 1 5 7 3 
31 6 4 8 9 11 10 4 12 14 15 13 4 8 12 13 9 4 10 11 15 14 4 8 10 14 12 4 9 13 15 11 

 
CELL_TYPES 2
42
42
 
CELL_DATA 2
SCALARS id float
LOOKUP_TABLE default
0
1
 
SCALARS volume float
LOOKUP_TABLE default
4
60
 
SCALARS alpha float
LOOKUP_TABLE default
1.13547777957297
2.65549930781634
 
SCALARS beta float
LOOKUP_TABLE default
1.33180736863474
5.14290769638623
 
SCALARS order float
LOOKUP_TABLE default
6
6
 
SCALARS aspectRatio float
LOOKUP_TABLE default
3
11.7046999107094
 
SCALARS inscribedSphereRadius float
LOOKUP_TABLE default
0.5
0.5000000000005
