# vtk DataFile Version 3.0
Voronoi results
ASCII
 
DATASET UNSTRUCTURED_GRID
POINTS 16 float
2 2 1
2 2 2
2 4 1
2 4 2
4 2 1
4 2 2
4 4 1
4 4 2
6 2 1
6 2 2
6 4 1
6 4 2
8 2 1
8 2 2
8 4 1
8 4 2
 
CELLS 2 64
31 6 4 0 1 3 2 4 4 6 7 5 4 0 4 5 1 4 2 3 7 6 4 0 2 6 4 4 1 5 7 3 
31 6 4 8 9 11 10 4 12 14 15 13 4 8 12 13 9 4 10 11 15 14 4 8 10 14 12 4 9 13 15 11 

 
CELL_TYPES 2
42
42
 
CELL_DATA 2
SCALARS id float
LOOKUP_TABLE default
0
1
 
SCALARS volume float
LOOKUP_TABLE default
4
4
 
SCALARS alpha float
LOOKUP_TABLE default
1.13547777957297
1.13547777957297
 
SCALARS beta float
LOOKUP_TABLE default
1.33180736863474
1.33180736863474
 
SCALARS order float
LOOKUP_TABLE default
6
6
 
SCALARS aspectRatio float
LOOKUP_TABLE default
3
3
 
SCALARS inscribedSphereRadius float
LOOKUP_TABLE default
0.5
0.5
