# vtk DataFile Version 3.0
Voronoi results
ASCII
 
DATASET UNSTRUCTURED_GRID
POINTS 88 float
0 0 11
-0 -0 10
-0 8 11
0 8 10
8 -0 11
8 0 10
8 8 11
8 8 10
-0 -0 -0
0 0 1
0 8 0
-0 8 1
8 0 0
8 -0 1
8 8 -0
8 8 1
-0 -0 1
0 0 2
0 8 1
-0 8 2
8 0 1
8 -0 2
8 8 1
8 8 2
-0 -0 2
0 0 3
0 8 2
-0 8 3
8 0 2
8 -0 3
8 8 2
8 8 3
-0 -0 3
0 0 4
0 8 3
-0 8 4
8 0 3
8 -0 4
8 8 3
8 8 4
-0 -0 4
0 0 5
0 8 4
-0 8 5
8 0 4
8 -0 5
8 8 4
8 8 5
-0 -0 5
0 0 6
0 8 5
-0 8 6
8 0 5
8 -0 6
8 8 5
8 8 6
-0 -0 6
0 0 7
0 8 6
-0 8 7
8 0 6
8 -0 7
8 8 6
8 8 7
-0 -0 7
0 0 8
0 8 7
-0 8 8
8 0 7
8 -0 8
8 8 7
8 8 8
-0 -0 8
0 0 9
0 8 8
-0 8 9
8 0 8
8 -0 9
8 8 8
8 8 9
-0 -0 9
0 0 10
0 8 9
-0 8 10
8 0 9
8 -0 10
8 8 9
8 8 10
 
CELLS 11 352
31 6 4 0 2 3 1 4 4 5 7 6 4 0 1 5 4 4 2 6 7 3 4 0 4 6 2 4 1 3 7 5 
31 6 4 8 9 11 10 4 12 14 15 13 4 8 12 13 9 4 10 11 15 14 4 8 10 14 12 4 9 13 15 11 
31 6 4 16 17 19 18 4 20 22 23 21 4 16 20 21 17 4 18 19 23 22 4 16 18 22 20 4 17 21 23 19 
31 6 4 24 25 27 26 4 28 30 31 29 4 24 28 29 25 4 26 27 31 30 4 24 26 30 28 4 25 29 31 27 
31 6 4 32 33 35 34 4 36 38 39 37 4 32 36 37 33 4 34 35 39 38 4 32 34 38 36 4 33 37 39 35 
31 6 4 40 41 43 42 4 44 46 47 45 4 40 44 45 41 4 42 43 47 46 4 40 42 46 44 4 41 45 47 43 
31 6 4 48 49 51 50 4 52 54 55 53 4 48 52 53 49 4 50 51 55 54 4 48 50 54 52 4 49 53 55 51 
31 6 4 56 57 59 58 4 60 62 63 61 4 56 60 61 57 4 58 59 63 62 4 56 58 62 60 4 57 61 63 59 
31 6 4 64 65 67 66 4 68 70 71 69 4 64 68 69 65 4 66 67 71 70 4 64 66 70 68 4 65 69 71 67 
31 6 4 72 73 75 74 4 76 78 79 77 4 72 76 77 73 4 74 75 79 78 4 72 74 78 76 4 73 77 79 75 
31 6 4 80 81 83 82 4 84 86 87 85 4 80 84 85 81 4 82 83 87 86 4 80 82 86 84 4 81 85 87 83 

 
CELL_TYPES 11
42
42
42
42
42
42
42
42
42
42
42
 
CELL_DATA 11
SCALARS id float
LOOKUP_TABLE default
0
1
2
3
4
5
6
7
8
9
10
 
SCALARS volume float
LOOKUP_TABLE default
64
64
64
64
64
64
64
64
64
64
64
 
SCALARS alpha float
LOOKUP_TABLE default
2.58794251795837
2.58794251795837
2.58794251795837
2.58794251795837
2.58794251795837
2.58794251795837
2.58794251795837
2.58794251795837
2.58794251795837
2.58794251795837
2.58794251795837
 
SCALARS beta float
LOOKUP_TABLE default
2.06640917787526
2.06640917787526
2.06640917787526
2.06640917787526
2.06640917787526
2.06640917787526
2.06640917787526
2.06640917787526
2.06640917787526
2.06640917787526
2.06640917787526
 
SCALARS order float
LOOKUP_TABLE default
6
6
6
6
6
6
6
6
6
6
6
 
SCALARS aspectRatio float
LOOKUP_TABLE default
11.357816691602
11.3578166915907
11.357816691602
11.357816691602
11.357816691602
11.357816691602
11.357816691602
11.357816691602
11.357816691602
11.357816691602
11.357816691602
 
SCALARS inscribedSphereRadius float
LOOKUP_TABLE default
0.5
0.5000000000005
0.5
0.5
0.5
0.5
0.5
0.5
0.5
0.5
0.5
