# vtk DataFile Version 3.0
Voronoi results
ASCII
 
DATASET UNSTRUCTURED_GRID
POINTS 24 float
0 0 3
-0 -0 2
-0 8 3
0 8 2
8 -0 3
8 0 2
8 8 3
8 8 2
-0 -0 -0
0 0 1
0 8 0
-0 8 1
8 0 0
8 -0 1
8 8 -0
8 8 1
-0 -0 1
0 0 2
0 8 1
-0 8 2
8 0 1
8 -0 2
8 8 1
8 8 2
 
CELLS 3 96
31 6 4 0 2 3 1 4 4 5 7 6 4 0 1 5 4 4 2 6 7 3 4 0 4 6 2 4 1 3 7 5 
31 6 4 8 9 11 10 4 12 14 15 13 4 8 12 13 9 4 10 11 15 14 4 8 10 14 12 4 9 13 15 11 
31 6 4 16 17 19 18 4 20 22 23 21 4 16 20 21 17 4 18 19 23 22 4 16 18 22 20 4 17 21 23 19 

 
CELL_TYPES 3
42
42
42
 
CELL_DATA 3
SCALARS id float
LOOKUP_TABLE default
0
1
2
 
SCALARS volume float
LOOKUP_TABLE default
64
64
64
 
SCALARS alpha float
LOOKUP_TABLE default
2.58794251795837
2.58794251795837
2.58794251795837
 
SCALARS beta float
LOOKUP_TABLE default
2.06640917787526
2.06640917787526
2.06640917787526
 
SCALARS order float
LOOKUP_TABLE default
6
6
6
 
SCALARS aspectRatio float
LOOKUP_TABLE default
11.357816691602
11.3578166915907
11.357816691602
 
SCALARS inscribedSphereRadius float
LOOKUP_TABLE default
0.5
0.5000000000005
0.5
