# vtk DataFile Version 3.0
Discrete fracture network
ASCII
 
DATASET POLYDATA
POINTS 1580 double
0 4.02016438172377 25.173907562603
0 5.30836229455549 26.5293929726545
0 7.2738597476433 28.5975558648746
0 8.60668531281332 30
1.68134835204049 7.98360145630241 30
2.55346867705328 7.66040603115985 30
4.00271743737174 7.12333499199835 30
5.90114174406845 6.41980586498846 30
7.66804978700115 5.76501480033221 30
9.52188739540821 5.07800887143631 30
10 4.9008271201627 30
10 3.45147881378748 28.4749466958412
10 2.16327517717985 27.1194552630391
10 1.18529963416827 26.0903963220683
10 0.330100803596288 25.1905271901697
10 0 24.8431839607917
8.539457983619 0 24.273655924547
8.02425161406463 0 24.0727548421939
7.33839772733424 0 23.8053109666468
6.65922220433364 0 23.5404712718337
6.17712362078782 0 23.3524803366304
5.77718521464305 0 23.1965271819003
5.4002698904082 0 23.0495517152349
4.99986437392647 0 22.8934164141304
4.51656220221201 0 22.7049561482276
3.83450025781366 0 22.4389909137916
2.62491385416564 0 21.9673212449895
0 0 20.9437546403267
0 0.148722243261858 21.1002452143942
0 1.19423150670242 22.200365419955
0 2.1084857596188 23.1623746644674
0 3.01213630797292 24.1132263324277
0 3.49698835278324 27.6633969047618
0 3.66002813339047 27.8336128309962
0 3.8690910266594 28.0518775629928
0 4.18961405329776 28.386508311731
0 4.84557594737709 29.0713421661397
0 5.73508242800597 30
0.378829894949064 5.59846058703721 30
1.14407092417949 5.32248279438608 30
1.70654387276341 5.11963161829024 30
1.85999366860209 5.06429122967974 30
2.6149984641589 4.79200504930029 30
3.51880605923682 4.46605438076152 30
4.78053922968536 4.01102083970154 30
6.97935674939018 3.21803564634223 30
10 2.12866585976898 30
10 1.60074091753288 29.448838604356
10 0 27.7776415693477
9.97710346251245 0 27.7690206752299
9.15289830513621 0 27.4586949154086
6.69389549002798 0 26.5328430080627
4.8457888828016 0 25.8370028013063
3.53764607361472 0 25.3444671655091
2.45476024746822 0 24.9367442050408
1.43613289687032 0 24.5532155365776
0.35605800038439 0 24.1465509338191
0 0 24.0124896888477
0 1.70596622446983 25.7935434902038
0 2.46737723512528 26.5884677715117
0 2.81638913226916 26.9528413195987
0 3.03648952752155 27.1826293658222
0 3.20418035391963 27.3577010521926
0 3.35124230215451 27.5112358866938
0 11.4601222298932 9.39412298981538
0 11.9435902177328 9.90482224729537
0 12.5380505160619 10.5327654422826
0 13.3979495636269 11.4410981884931
0 14.9864230092664 13.1190421881359
0 19.8832021189785 18.291631725136
0 30 28.9782568913657
2.75145121835444 30 30
3.49619735412188 29.7381873328297 30
9.23969428789123 27.7190828636737 30
9.81542445750581 27.5166871155952 30
10 27.4518002867095 30
10 18.5690161813051 20.6168942699668
10 14.8671046539254 16.7064730717865
10 12.6941655770226 14.4111434925058
10 11.1151779057614 12.7432195522123
10 9.78149963883147 11.3344220355827
10 8.50433851172337 9.98532497910323
10 7.1255179192237 8.52884250146428
10 5.43015416944911 6.73798761562709
10 2.97777563751845 4.14747919145309
10 0 1.00198074011138
9.06133172217574 0 0.653409107162645
7.301766848389 0 0
5.43077363208528 0.657740538275192 0
2.17590987054991 1.80197549533942 0
0.765887794998919 2.29766338499676 0
0 2.5669083219379 0
0 4.64283338278874 2.19285126177252
0 7.93105580338663 5.66628236965721
0 9.22908959185634 7.03742773735297
0 9.99100632629068 7.84225932977336
0 10.5446606569561 8.42709816643537
0 11.0122999942603 8.92107722675932
0 20.956946441231 10.955356916785
0 22.8818882291718 12.9686369958128
0 25.5884089273151 15.7993637425564
0 30 20.4134089459467
0.235166277744497 30 20.4994950055262
4.43626935154396 30 22.0373703037187
7.75015563462829 30 23.2504669038849
8.64906324840035 30 23.5795251988833
10 30 24.0740553789835
10 20.5676558823731 14.208847698668
10 18.5558937099543 12.1047629253797
10 17.8379663959284 11.3538889152807
10 17.4344405671848 10.9318447176472
10 17.1490711370066 10.6333792822036
10 16.9130026042522 10.3864772318366
10 16.6910757088697 10.1543657985075
10 16.4559023730672 9.90840002694179
10 16.172839581942 9.61234708546763
10 15.774845570978 9.1960885685266
10 15.0732592642059 8.46230547753039
10 13.1504979055702 6.4513058907809
10 6.98226109375555 0
8.76916886303702 7.41305511041782 0
5.6278153623234 8.51253679534469 0
3.12903835929881 9.38711507789642 0
2.47476649656747 9.61611188767051 0
0 10.4822864321236 0
0 11.5583505302682 1.12544619589207
0 14.3024898329801 3.99551791797636
0 16.2431177020379 6.025203934487
0 17.8484794725142 7.70423801872818
0 19.3576723731125 9.28268990814103
0 6.49568223480818 25.2092240713538
0 7.49440084746531 26.2478859329982
0 8.90289377738171 27.7127108297803
0 11.1022219237056 30
0.248647374209298 11.0099033405204 30
2.63704611590315 10.1231311048767 30
3.29317396136398 9.87952188409195 30
4.47625782960166 9.4402627652201 30
6.10332320141837 8.83616079006954 30
7.72900434789209 8.23257275448051 30
9.56332395513634 7.55152077157442 30
10 7.38939030910347 30
10 6.08302861797688 28.641391029575
10 4.85037418390886 27.3594372009116
10 3.828314661211 26.2965009212599
10 2.86552585066141 25.2952058561012
10 1.84319520083508 24.2319876057278
10 0.6098421626386 22.9493072326149
10 0 22.31507473917
8.87409778127845 0 21.8803273627288
7.3022614984516 0 21.2733903758473
7.05994083523613 0 21.1798225057084
5.89493345801038 0 20.7299753588055
4.47277247854612 0 20.1808328627536
2.84850737656358 0 19.5536514077479
0.712362779886675 0 18.7288166719581
0 0 18.4537502900997
0 1.65530306649219 20.1752563708305
0 3.062439345605 21.6386703582419
0 4.06059225734409 22.6767438940443
0 4.8882140630636 23.5374660179457
0 5.66784088148047 24.348273619148
0 17.2794088356491 21.4970729736258
0 19.7567020153562 24.0424421323347
0 23.5134642862868 27.9024401734866
0 25.5549248086122 30
3.52307451406203 24.2459620689064 30
7.57960029968928 22.7388008990678 30
7.72062924289052 22.6864030201318 30
10 21.8395258453452 30
10 12.5998229024652 20.5063901604006
10 12.0777752442905 19.9699966404979
10 11.9911054439688 19.880945155378
10 11.9523097526528 19.8410833590531
10 11.9281363724375 19.8162456947162
10 11.9098686761772 19.7974760024397
10 11.8939535200136 19.7811234980261
10 11.8782769195698 19.7650161048399
10 11.8608525403537 19.7471129039472
10 11.8386813339541 19.7243324331321
10 11.8050591723199 19.6897863350062
10 11.7376108294755 19.6204845127235
10 11.4725184780436 19.3481074274953
10 0 7.56032431569415
8.38233703823958 0 6.94278179218293
3.6553512153028 0 5.138255866386
1.42951435861241 0 4.28854307583724
0 0 3.74282624527302
0 2.72563923255311 6.54336600259323
0 7.06046431003187 10.997312007449
0 9.76146978797186 13.772541074953
0 11.8026054185301 15.8697670816783
0 13.5808806782258 17.696909318537
0 15.332500985231 19.4966641250095
0 17.7924769955795 28.8688257761957
0 18.0169744355842 29.1025118378765
0 18.2835974211051 29.3800476326662
0 18.65199746975 29.7635261992328
0 18.8791730339174 30
0.366562077044122 18.74617299629 30
0.837465221389245 18.5753147983503 30
1.19477043121083 18.4456734379184 30
1.50708182272779 18.332357223764 30
1.8156453300935 18.2204008576799 30
2.15970265141156 18.0955662401704 30
2.59916084248235 17.9361172420105 30
3.26918627673714 17.6930113302211 30
4.6265293003091 17.2005253789625 30
5.61407152458245 16.8422145737474 30
10 15.2508643256105 30
10 15.2360093859877 29.9845370515723
10 13.6380236918888 28.321146219728
10 11.7401859411712 26.3456304647815
10 9.11789319953571 23.6160079650582
10 4.6220328621326 18.9361332364515
10 0 14.1249217745807
7.51048128480018 0 13.1846767519646
3.94616714753304 0 11.8385014425991
1.90072174661901 0 11.0659746704564
0 0 10.3481073370135
0 13.6522713211199 24.559162563141
0 15.9102421274079 26.9095515257089
0 16.6571302038936 27.6870095363957
0 17.0644614060284 28.1110126984122
0 17.3473040540251 28.4054320222332
0 17.5780941039645 28.6456682487325
0 26.0513443942247 19.6257322663182
0 26.1286549136908 19.7065688733208
0 26.2146584840445 19.7964950161732
0 26.3242039115602 19.9110367465118
0 26.4905678116717 20.0849884067206
0 26.8251822414511 20.4348644047644
0 28.151769289524 21.8219563115375
0 30 23.7544837427941
0.971599948352644 30 24.139401310744
2.59322541461577 30 24.7818386962728
4.87769459899081 30 25.6868740701395
8.91739893987668 30 27.2872788177589
9.12289689780567 30 27.368690693417
10 30 27.716171560939
10 27.9341201091192 25.5560680975676
10 25.98218639853 23.5151078330687
10 24.2801200305362 21.7354112143927
10 22.602194028167 19.9809559892861
10 20.735596468227 18.029224007313
10 18.3580529911093 15.5432421639793
10 14.7473371948573 11.7678437339145
10 7.48495871942713 4.17423242749823
10 3.49280603875318 0
4.56977709131806 5.5502519307292 0
2.15505380853367 6.46516142560101 0
0 7.28168529210119 0
0 22.6341704904524 16.0527030611529
0 25.1494731500596 18.6827272026475
0 25.5736277207802 19.1262272150455
0 25.7641065090856 19.3253936293823
0 25.8829861687693 19.4496953207539
0 25.9729216062772 19.5437326609198
4.72206735211772 5.70589383790413 30
7.34478479393343 4.70453995464132 30
8.49272622169651 4.26625575821146 30
9.20006862962514 3.99619232870015 30
9.73062035809244 3.79362760514201 30
10 3.69077842047753 30
10 3.00848824582687 29.2911820855652
10 2.6195320364221 28.8871030889742
10 2.49349480071702 28.7561654705345
10 2.4252941465955 28.6853131452137
10 2.37815754058152 28.6363438473846
10 2.33982876867259 28.5965248360948
10 2.3043314772402 28.5596473944783
10 2.26726902639764 28.5211439393706
10 2.22339700367152 28.4755661532524
10 2.16303537155238 28.412857634531
10 2.06023611962269 28.3060615028183
10 1.80002107693889 28.035729185701
10 0 26.16572250365
9.90595513330463 0 26.1284201062006
9.06209875803131 0 25.793708951762
8.5271785650178 0 25.5815356950534
7.97188883289769 0 25.3612829687223
6.28241164519852 0 24.6911608052092
2.75512999407255 0 23.2920832511692
0 0 22.1992755554926
0 1.35259116218105 23.6044560524138
0 3.20240797381479 25.5261945490585
0 4.9155723458719 27.3059674996322
[...]
CELL_DATA 49
SCALARS FracSetId float
LOOKUP_TABLE default
0
0
0
0
0
0
0
0
0
0
0
0
0
0
0
0
0
0
0
0
0
0
0
0
0
0
0
0
0
0
0
0
0
0
0
0
0
0
0
0
0
0
0
0
0
0
0
0
0
 
SCALARS FracId float
LOOKUP_TABLE default
0
1
2
3
4
5
6
7
8
9
10
11
12
13
14
15
16
17
18
19
20
21
22
23
24
25
26
27
28
29
30
31
32
33
34
35
36
37
38
39
40
41
42
43
44
45
46
47
48
 
SCALARS Area float
LOOKUP_TABLE default
101.514404201551
58.73817772614
422.438571760625
317.444746517724
138.090589211937
351.602308019559
254.616597808149
369.211722662818
83.7461817761109
195.175020148083
236.225116146396
409.816789078607
190.52837939356
387.991016307964
328.713483133505
235.223127184644
417.010241270811
101.90033638467
348.787708393678
120.375378624315
277.572980668368
174.398079272513
273.280803979515
394.459673333967
250.050165600547
380.693054477752
79.2733123250942
412.639793655328
113.085248743826
275.520074827839
191.185650171705
30.7888024016349
386.396085814951
360.387138589807
412.139980908477
140.703369843194
170.916507599927
421.712880599093
333.990334374611
395.715910348093
136.689044282828
405.327465032857
268.977427430971
196.328096967329
275.234977657737
254.587854730096
370.577315164251
385.830473537607
289.659517783863
