# vtk DataFile Version 3.0
Voronoi results
ASCII
 
DATASET UNSTRUCTURED_GRID
POINTS 8 float
0 0 100
-0 -0 79.7945205479452
0 100 100
0 30.4973821989529 30.4973821989529
23.4126984126984 -0 100
30 100 100
30 3.51694915254237 100
30 40.3926701570681 40.3926701570681
 
CELLS 1 32
31 6 4 0 2 3 1 3 0 1 4 5 0 4 6 5 2 4 2 5 7 3 5 1 3 7 6 4 3 5 6 7 
 
CELL_TYPES 1
42
 
CELL_DATA 1
SCALARS id float
LOOKUP_TABLE default
1
 
SCALARS volume float
LOOKUP_TABLE default
100394.279070541
 
SCALARS alpha float
LOOKUP_TABLE default
1.3539098499035
 
SCALARS beta float
LOOKUP_TABLE default
3.62831088875583
 
SCALARS order float
LOOKUP_TABLE default
6
 
SCALARS aspectRatio float
LOOKUP_TABLE default
4.18072480175367
 
SCALARS inscribedSphereRadius float
LOOKUP_TABLE default
15
