# vtk DataFile Version 3.0
Voronoi results
ASCII
 
DATASET UNSTRUCTURED_GRID
POINTS 4 float
46.5364780828151 45.8471105718186 45.8471105718186
30 29.622641509434 29.622641509434
30 62.7834497581945 4.19935518538423
30 40.3926701570681 40.3926701570681
 
CELLS 1 18
17 4 3 0 1 2 3 0 3 1 3 0 2 3 3 1 3 2 
 
CELL_TYPES 1
42
 
CELL_DATA 1
SCALARS id float
LOOKUP_TABLE default
12
 
SCALARS volume float
LOOKUP_TABLE default
1738.95502516589
 
SCALARS alpha float
LOOKUP_TABLE default
3.41808051683098
 
SCALARS beta float
LOOKUP_TABLE default
6.24382336181443
 
SCALARS order float
LOOKUP_TABLE default
4
 
SCALARS aspectRatio float
LOOKUP_TABLE default
7.5624729171691
 
SCALARS inscribedSphereRadius float
LOOKUP_TABLE default
3.68570705080179
