# vtk DataFile Version 3.0
Voronoi results
ASCII
 
DATASET UNSTRUCTURED_GRID
POINTS 10 float
100 -0 100
100 0 -1.83697019872103e-14
100 40.8898305084746 100
100 63.4816753926702 63.4816753926702
57.5 0 100
30 0 52.3333333333333
30 -0 -5.51091059616309e-15
68.0381907403456 23.8254747173032 100
46.5364780828151 45.8471105718186 45.8471105718186
30 29.622641509434 29.622641509434
 
CELLS 1 39
38 7 4 0 1 3 2 5 0 4 5 6 1 4 0 2 7 4 5 4 7 8 9 5 5 1 6 9 8 3 4 2 3 8 7 3 5 9 6 
 
CELL_TYPES 1
42
 
CELL_DATA 1
SCALARS id float
LOOKUP_TABLE default
10
 
SCALARS volume float
LOOKUP_TABLE default
192038.891175994
 
SCALARS alpha float
LOOKUP_TABLE default
1.13820404327561
 
SCALARS beta float
LOOKUP_TABLE default
2.1672293312686
 
SCALARS order float
LOOKUP_TABLE default
7
 
SCALARS aspectRatio float
LOOKUP_TABLE default
2.89143625753303
 
SCALARS inscribedSphereRadius float
LOOKUP_TABLE default
23.791992085255
