# vtk DataFile Version 3.0
Voronoi results
ASCII
 
DATASET UNSTRUCTURED_GRID
POINTS 8 float
57.5 -0 100
30 0 100
30 -0 52.3333333333333
68.0381907403456 23.8254747173032 100
30 3.51694915254237 100
46.5364780828151 45.8471105718186 45.8471105718186
30 29.622641509434 29.622641509434
30 40.3926701570681 40.3926701570681
 
CELLS 1 32
31 6 3 0 1 2 4 0 3 4 1 5 0 2 6 5 3 3 5 6 7 4 3 5 7 4 5 1 4 7 6 2 
 
CELL_TYPES 1
42
 
CELL_DATA 1
SCALARS id float
LOOKUP_TABLE default
11
 
SCALARS volume float
LOOKUP_TABLE default
24574.9332538581
 
SCALARS alpha float
LOOKUP_TABLE default
1.97622360810498
 
SCALARS beta float
LOOKUP_TABLE default
5.56855485570501
 
SCALARS order float
LOOKUP_TABLE default
6
 
SCALARS aspectRatio float
LOOKUP_TABLE default
5.14203833684841
 
SCALARS inscribedSphereRadius float
LOOKUP_TABLE default
8.96584046534724
