# vtk DataFile Version 3.0
Voronoi results
ASCII
 
DATASET UNSTRUCTURED_GRID
POINTS 10 float
0 100 0
-0 100 100
0 49.364406779661 0
-0 30.4973821989529 30.4973821989529
30 100 -0
30 100 100
28.3326221463623 64.4911457222104 0
30 68.2608695652174 -0
30 62.7834497581945 4.19935518538423
30 40.3926701570681 40.3926701570681
 
CELLS 1 39
38 7 4 0 2 3 1 4 0 1 5 4 5 0 4 7 6 2 3 6 7 8 4 1 3 9 5 5 2 6 8 9 3 5 4 5 9 8 7 
 
CELL_TYPES 1
42
 
CELL_DATA 1
SCALARS id float
LOOKUP_TABLE default
3
 
SCALARS volume float
LOOKUP_TABLE default
119294.775021275
 
SCALARS alpha float
LOOKUP_TABLE default
1.14770099347641
 
SCALARS beta float
LOOKUP_TABLE default
3.51109176165508
 
SCALARS order float
LOOKUP_TABLE default
7
 
SCALARS aspectRatio float
LOOKUP_TABLE default
4.18072480175356
 
SCALARS inscribedSphereRadius float
LOOKUP_TABLE default
15.0000000000005
