# vtk DataFile Version 3.0
Voronoi results
ASCII
 
DATASET UNSTRUCTURED_GRID
POINTS 6 float
100 96.0869565217391 100
100 40.8898305084746 100
100 98.3018867924528 98.3018867924528
100 63.4816753926702 63.4816753926702
68.0381907403456 23.8254747173032 100
46.5364780828151 45.8471105718186 45.8471105718186
 
CELLS 1 25
24 5 4 0 1 3 2 3 0 4 1 4 0 2 5 4 3 2 3 5 4 1 4 5 3 
 
CELL_TYPES 1
42
 
CELL_DATA 1
SCALARS id float
LOOKUP_TABLE default
0
 
SCALARS volume float
LOOKUP_TABLE default
35097.9776144539
 
SCALARS alpha float
LOOKUP_TABLE default
1.81152326271179
 
SCALARS beta float
LOOKUP_TABLE default
2.34232704040063
 
SCALARS order float
LOOKUP_TABLE default
5
 
SCALARS aspectRatio float
LOOKUP_TABLE default
4.467819157159
 
SCALARS inscribedSphereRadius float
LOOKUP_TABLE default
11.9161334538121
