# vtk DataFile Version 3.0
Voronoi results
ASCII
 
DATASET UNSTRUCTURED_GRID
POINTS 10 float
100 100 97
100 100 100
100 98.3018867924528 98.3018867924528
44.0384615384615 100 -0
30 100 0
30 100 100
30 68.2608695652174 0
46.5364780828151 45.8471105718186 45.8471105718186
30 62.7834497581945 4.19935518538423
30 40.3926701570681 40.3926701570681
 
CELLS 1 39
38 7 3 0 1 2 5 0 3 4 5 1 3 3 6 4 6 0 2 7 8 6 3 5 1 5 9 7 2 3 7 9 8 5 4 6 8 9 5 
 
CELL_TYPES 1
42
 
CELL_DATA 1
SCALARS id float
LOOKUP_TABLE default
9
 
SCALARS volume float
LOOKUP_TABLE default
101062.926771599
 
SCALARS alpha float
LOOKUP_TABLE default
1.63522854202823
 
SCALARS beta float
LOOKUP_TABLE default
6.03536514711376
 
SCALARS order float
LOOKUP_TABLE default
7
 
SCALARS aspectRatio float
LOOKUP_TABLE default
3.8551947282646
 
SCALARS inscribedSphereRadius float
LOOKUP_TABLE default
17.6180392500649
