# vtk DataFile Version 3.0
Voronoi results
ASCII
 
DATASET UNSTRUCTURED_GRID
POINTS 8 float
100 96.0869565217391 100
100 100 100
100 98.3018867924528 98.3018867924528
68.0381907403456 23.8254747173032 100
30 100 100
30 3.51694915254237 100
46.5364780828151 45.8471105718186 45.8471105718186
30 40.3926701570681 40.3926701570681
 
CELLS 1 32
31 6 3 0 2 1 5 0 1 4 5 3 4 0 3 6 2 5 1 2 6 7 4 4 3 5 7 6 3 4 7 5 
 
CELL_TYPES 1
42
 
CELL_DATA 1
SCALARS id float
LOOKUP_TABLE default
8
 
SCALARS volume float
LOOKUP_TABLE default
98288.1979556942
 
SCALARS alpha float
LOOKUP_TABLE default
1.52375585958841
 
SCALARS beta float
LOOKUP_TABLE default
4.34345953966031
 
SCALARS order float
LOOKUP_TABLE default
6
 
SCALARS aspectRatio float
LOOKUP_TABLE default
3.60546599179303
 
SCALARS inscribedSphereRadius float
LOOKUP_TABLE default
18.4822436444297
