# vtk DataFile Version 3.0
Voronoi results
ASCII
 
DATASET UNSTRUCTURED_GRID
POINTS 6 float
0 0 0.333333333333347
-0 -0 -0
0 0.188679245283027 0.188679245283027
30 -0 52.3333333333333
30 0 -5.51091059616309e-15
30 29.622641509434 29.622641509434
 
CELLS 1 25
24 5 3 0 2 1 4 0 1 4 3 4 0 3 5 2 4 1 2 5 4 3 3 4 5 
 
CELL_TYPES 1
42
 
CELL_DATA 1
SCALARS id float
LOOKUP_TABLE default
4
 
SCALARS volume float
LOOKUP_TABLE default
7800.94339622642
 
SCALARS alpha float
LOOKUP_TABLE default
1.95119267725886
 
SCALARS beta float
LOOKUP_TABLE default
4.71735175060208
 
SCALARS order float
LOOKUP_TABLE default
5
 
SCALARS aspectRatio float
LOOKUP_TABLE default
4.53118690123654
 
SCALARS inscribedSphereRadius float
LOOKUP_TABLE default
7.41563582375435
