# vtk DataFile Version 3.0
Voronoi results
ASCII
 
DATASET UNSTRUCTURED_GRID
POINTS 8 float
0 0.43478260869567 0
-0 49.364406779661 -0
0 0.188679245283027 0.188679245283027
0 30.4973821989529 30.4973821989529
28.3326221463623 64.4911457222104 -0
30 29.622641509434 29.622641509434
30 62.7834497581945 4.19935518538423
30 40.3926701570681 40.3926701570681
 
CELLS 1 32
31 6 4 0 2 3 1 3 0 1 4 5 0 4 6 5 2 4 2 5 7 3 5 1 3 7 6 4 3 5 6 7 
 
CELL_TYPES 1
42
 
CELL_DATA 1
SCALARS id float
LOOKUP_TABLE default
7
 
SCALARS volume float
LOOKUP_TABLE default
20530.0814184299
 
SCALARS alpha float
LOOKUP_TABLE default
1.49043167416192
 
SCALARS beta float
LOOKUP_TABLE default
3.25174252517188
 
SCALARS order float
LOOKUP_TABLE default
6
 
SCALARS aspectRatio float
LOOKUP_TABLE default
3.93589558028215
 
SCALARS inscribedSphereRadius float
LOOKUP_TABLE default
10.3722101242077
