# vtk DataFile Version 3.0
Voronoi results
ASCII
 
DATASET UNSTRUCTURED_GRID
POINTS 10 float
-0 -0 0.333333333333347
0 0 79.7945205479452
-0 0.188679245283027 0.188679245283027
-0 30.4973821989529 30.4973821989529
23.4126984126984 0 100
30 -0 100
30 0 52.3333333333333
30 3.51694915254237 100
30 29.622641509434 29.622641509434
30 40.3926701570681 40.3926701570681
 
CELLS 1 39
38 7 4 0 1 3 2 5 0 6 5 4 1 3 4 5 7 4 0 2 8 6 4 2 3 9 8 5 1 4 7 9 3 5 5 6 8 9 7 
 
CELL_TYPES 1
42
 
CELL_DATA 1
SCALARS id float
LOOKUP_TABLE default
5
 
SCALARS volume float
LOOKUP_TABLE default
41804.7775332326
 
SCALARS alpha float
LOOKUP_TABLE default
1.53968063184697
 
SCALARS beta float
LOOKUP_TABLE default
5.66766747474914
 
SCALARS order float
LOOKUP_TABLE default
7
 
SCALARS aspectRatio float
LOOKUP_TABLE default
4.18523482350689
 
SCALARS inscribedSphereRadius float
LOOKUP_TABLE default
13.3536079919525
