# vtk DataFile Version 3.0
Voronoi results
ASCII
 
DATASET UNSTRUCTURED_GRID
POINTS 10 float
-0 0.43478260869567 -0
0 0 0
-0 0.188679245283027 0.188679245283027
100 100 -0
100 100 4.45205479452054
100 1.83697019872103e-14 -0
100 63.4816753926702 63.4816753926702
94.8412698412699 100 0
28.3326221463623 64.4911457222104 0
46.5364780828151 45.8471105718186 45.8471105718186
 
CELLS 1 39
38 7 3 0 1 2 4 3 4 6 5 3 3 7 4 6 0 8 7 3 5 1 4 0 2 9 8 5 1 5 6 9 2 5 4 7 8 9 6 
 
CELL_TYPES 1
42
 
CELL_DATA 1
SCALARS id float
LOOKUP_TABLE default
6
 
SCALARS volume float
LOOKUP_TABLE default
163757.613559509
 
SCALARS alpha float
LOOKUP_TABLE default
1.51678021371306
 
SCALARS beta float
LOOKUP_TABLE default
4.09141255414304
 
SCALARS order float
LOOKUP_TABLE default
7
 
SCALARS aspectRatio float
LOOKUP_TABLE default
3.66454257563303
 
SCALARS inscribedSphereRadius float
LOOKUP_TABLE default
21.1507817127584
