# vtk DataFile Version 3.0
Voronoi results
ASCII
 
DATASET UNSTRUCTURED_GRID
POINTS 8 float
100 100 97
100 100 4.45205479452054
100 98.3018867924528 98.3018867924528
100 63.4816753926702 63.4816753926702
44.0384615384615 100 0
94.8412698412699 100 -0
28.3326221463623 64.4911457222104 -0
46.5364780828151 45.8471105718186 45.8471105718186
 
CELLS 1 32
31 6 4 0 2 3 1 4 0 1 5 4 3 4 5 6 5 0 4 6 7 2 3 2 7 3 5 1 3 7 6 5 
 
CELL_TYPES 1
42
 
CELL_DATA 1
SCALARS id float
LOOKUP_TABLE default
2
 
SCALARS volume float
LOOKUP_TABLE default
93615.648204021
 
SCALARS alpha float
LOOKUP_TABLE default
1.62137337808568
 
SCALARS beta float
LOOKUP_TABLE default
3.58274982288295
 
SCALARS order float
LOOKUP_TABLE default
6
 
SCALARS aspectRatio float
LOOKUP_TABLE default
4.28093493232369
 
SCALARS inscribedSphereRadius float
LOOKUP_TABLE default
15.5528632789848
