# vtk DataFile Version 3.0
Discrete fracture network
ASCII

DATASET POLYDATA
POINTS 58 double
10 10 10
80 90 70
35 60 15
17.340136762891 66.3299316185545 66.3299316185545
23.8159315595837 71.3821720120711 71.3821720120711
31.8134492388171 75.191758289279 75.191758289279
40.8679031428682 77.5372911430297 77.5372911430297
50.4530813224343 78.2824567295281 78.2824567295281
60.0119280624242 77.3839487334537 77.3839487334537
68.9889179353037 74.8939851735947 74.8939851735947
76.8623409196917 70.9572736814007 70.9572736814007
83.1746222904636 65.802601619434 65.802601619434
87.5589151985594 59.7295397914656 59.7295397914656
89.7604204764169 53.0910324762554 53.0910324762554
89.651194639433 46.2728855889711 46.2728855889711
87.2375854962336 39.6713450437462 39.6713450437461
82.659863237109 33.6700683814455 33.6700683814455
76.1840684404163 28.6178279879289 28.6178279879289
68.1865507611829 24.808241710721 24.808241710721
59.1320968571318 22.4627088569703 22.4627088569703
49.5469186775657 21.7175432704719 21.7175432704719
39.9880719375758 22.6160512665463 22.6160512665463
31.0110820646963 25.1060148264053 25.1060148264053
23.1376590803083 29.0427263185993 29.0427263185993
16.8253777095364 34.197398380566 34.197398380566
12.4410848014406 40.2704602085344 40.2704602085344
10.2395795235831 46.9089675237446 46.9089675237446
10.348805360567 53.7271144110289 53.7271144110289
12.7624145037664 60.3286549562538 60.3286549562539
60 35 75
15 45 20
85 70 40
30 56.8328157299975 46.5835921350013
30 59.2638594321071 53.3949616853589
30 59.9941939938237 60.5901920542261
30 58.9813750250784 67.7511226061625
30 56.2842638828875 74.461586086413
30 52.0596068632351 80.3315947490479
30 46.5529256760999 85.020005027208
30 40.0842486161065 88.2543435572047
30 33.0295116812973 89.8466423400168
30 25.7987105393979 89.7043627581578
30 18.812073069883 87.8357735837602
30 12.4756372470867 84.3494704275946
30 7.15765368902288 79.448064556901
30 3.16718427000252 73.4164078649987
30 0.736140567892907 66.6050383146411
30 0.00580600617631077 59.4098079457739
30 1.01862497492161 52.2488773938375
30 3.71573611711249 45.538413913587
30 7.9403931367649 39.6684052509521
30 13.4470743239001 34.979994972792
30 19.9157513838935 31.7456564427953
30 26.9704883187028 30.1533576599832
30 34.201289460602 30.2956372418422
30 41.187926930117 32.1642264162398
30 47.5243627529133 35.6505295724054
30 52.8423463109771 40.551935443099
 
POLYGONS 4 62
3 0 1 2
26 3 4 5 6 7 8 9 10 11 12 13 14 15 16 17 18 19 20 21 22 23 24 25 26 27 28
3 29 30 31
26 32 33 34 35 36 37 38 39 40 41 42 43 44 45 46 47 48 49 50 51 52 53 54 55 56 57
 
CELL_DATA 4
SCALARS FracSetId float
LOOKUP_TABLE default
0
0
1
1
 
SCALARS FracId float
LOOKUP_TABLE default
0
1
0
1
 
SCALARS Area float
LOOKUP_TABLE default
1607.21031604454
4977.7658171812
1904.84579428362
2799.99327216443
