# vtk DataFile Version 3.0
Voronoi results
ASCII
 
DATASET UNSTRUCTURED_GRID
POINTS 106 float
100 96.0869565217391 100
100 40.8898305084746 100
100 98.3018867924528 98.3018867924528
100 63.4816753926702 63.4816753926702
68.0381907403456 23.8254747173032 100
46.5364780828151 45.8471105718186 45.8471105718186
0 0 100
-0 -0 79.7945205479452
0 100 100
0 30.4973821989529 30.4973821989529
23.4126984126984 -0 100
30 100 100
30 3.51694915254237 100
30 40.3926701570681 40.3926701570681
100 100 97
100 100 4.45205479452054
100 98.3018867924528 98.3018867924528
100 63.4816753926702 63.4816753926702
44.0384615384615 100 0
94.8412698412699 100 -0
28.3326221463623 64.4911457222104 -0
46.5364780828151 45.8471105718186 45.8471105718186
0 100 0
-0 100 100
0 49.364406779661 0
-0 30.4973821989529 30.4973821989529
30 100 -0
30 100 100
28.3326221463623 64.4911457222104 0
30 68.2608695652174 -0
30 62.7834497581945 4.19935518538423
30 40.3926701570681 40.3926701570681
0 0 0.333333333333347
-0 -0 -0
0 0.188679245283027 0.188679245283027
30 -0 52.3333333333333
30 0 -5.51091059616309e-15
30 29.622641509434 29.622641509434
-0 -0 0.333333333333347
0 0 79.7945205479452
-0 0.188679245283027 0.188679245283027
-0 30.4973821989529 30.4973821989529
23.4126984126984 0 100
30 -0 100
30 0 52.3333333333333
30 3.51694915254237 100
30 29.622641509434 29.622641509434
30 40.3926701570681 40.3926701570681
-0 0.43478260869567 -0
0 0 0
-0 0.188679245283027 0.188679245283027
100 100 -0
100 100 4.45205479452054
100 1.83697019872103e-14 -0
100 63.4816753926702 63.4816753926702
94.8412698412699 100 0
28.3326221463623 64.4911457222104 0
46.5364780828151 45.8471105718186 45.8471105718186
0 0.43478260869567 0
-0 49.364406779661 -0
0 0.188679245283027 0.188679245283027
0 30.4973821989529 30.4973821989529
28.3326221463623 64.4911457222104 -0
30 29.622641509434 29.622641509434
30 62.7834497581945 4.19935518538423
30 40.3926701570681 40.3926701570681
100 96.0869565217391 100
100 100 100
100 98.3018867924528 98.3018867924528
68.0381907403456 23.8254747173032 100
30 100 100
30 3.51694915254237 100
46.5364780828151 45.8471105718186 45.8471105718186
30 40.3926701570681 40.3926701570681
100 100 97
100 100 100
100 98.3018867924528 98.3018867924528
44.0384615384615 100 -0
30 100 0
30 100 100
30 68.2608695652174 0
46.5364780828151 45.8471105718186 45.8471105718186
30 62.7834497581945 4.19935518538423
30 40.3926701570681 40.3926701570681
100 -0 100
100 0 -1.83697019872103e-14
100 40.8898305084746 100
100 63.4816753926702 63.4816753926702
57.5 0 100
30 0 52.3333333333333
30 -0 -5.51091059616309e-15
68.0381907403456 23.8254747173032 100
46.5364780828151 45.8471105718186 45.8471105718186
30 29.622641509434 29.622641509434
57.5 -0 100
30 0 100
30 -0 52.3333333333333
68.0381907403456 23.8254747173032 100
30 3.51694915254237 100
46.5364780828151 45.8471105718186 45.8471105718186
30 29.622641509434 29.622641509434
30 40.3926701570681 40.3926701570681
46.5364780828151 45.8471105718186 45.8471105718186
30 29.622641509434 29.622641509434
30 62.7834497581945 4.19935518538423
30 40.3926701570681 40.3926701570681
 
CELLS 13 423
24 5 4 0 1 3 2 3 0 4 1 4 0 2 5 4 3 2 3 5 4 1 4 5 3 
31 6 4 6 8 9 7 3 6 7 10 5 6 10 12 11 8 4 8 11 13 9 5 7 9 13 12 10 3 11 12 13 
31 6 4 14 16 17 15 4 14 15 19 18 3 18 19 20 5 14 18 20 21 16 3 16 21 17 5 15 17 21 20 19 
38 7 4 22 24 25 23 4 22 23 27 26 5 22 26 29 28 24 3 28 29 30 4 23 25 31 27 5 24 28 30 31 25 5 26 27 31 30 29 
24 5 3 32 34 33 4 32 33 36 35 4 32 35 37 34 4 33 34 37 36 3 35 36 37 
38 7 4 38 39 41 40 5 38 44 43 42 39 3 42 43 45 4 38 40 46 44 4 40 41 47 46 5 39 42 45 47 41 5 43 44 46 47 45 
38 7 3 48 49 50 4 51 52 54 53 3 51 55 52 6 48 56 55 51 53 49 4 48 50 57 56 5 49 53 54 57 50 5 52 55 56 57 54 
31 6 4 58 60 61 59 3 58 59 62 5 58 62 64 63 60 4 60 63 65 61 5 59 61 65 64 62 3 63 64 65 
31 6 3 66 68 67 5 66 67 70 71 69 4 66 69 72 68 5 67 68 72 73 70 4 69 71 73 72 3 70 73 71 
38 7 3 74 75 76 5 74 77 78 79 75 3 77 80 78 6 74 76 81 82 80 77 5 75 79 83 81 76 3 81 83 82 5 78 80 82 83 79 
38 7 4 84 85 87 86 5 84 88 89 90 85 4 84 86 91 88 5 88 91 92 93 89 5 85 90 93 92 87 4 86 87 92 91 3 89 93 90 
31 6 3 94 95 96 4 94 97 98 95 5 94 96 100 99 97 3 99 100 101 4 97 99 101 98 5 95 98 101 100 96 
17 4 3 102 103 104 3 102 105 103 3 102 104 105 3 103 105 104 

 
CELL_TYPES 13
42
42
42
42
42
42
42
42
42
42
42
42
42
 
CELL_DATA 13
SCALARS id float
LOOKUP_TABLE default
0
1
2
3
4
5
6
7
8
9
10
11
12
 
SCALARS volume float
LOOKUP_TABLE default
35097.9776144539
100394.279070541
93615.648204021
119294.775021275
7800.94339622642
41804.7775332326
163757.613559509
20530.0814184299
98288.1979556942
101062.926771599
192038.891175994
24574.9332538581
1738.95502516589
 
SCALARS alpha float
LOOKUP_TABLE default
1.81152326271179
1.3539098499035
1.62137337808568
1.14770099347641
1.95119267725886
1.53968063184697
1.51678021371306
1.49043167416192
1.52375585958841
1.63522854202823
1.13820404327561
1.97622360810498
3.41808051683098
 
SCALARS beta float
LOOKUP_TABLE default
2.34232704040063
3.62831088875583
3.58274982288295
3.51109176165508
4.71735175060208
5.66766747474914
4.09141255414304
3.25174252517188
4.34345953966031
6.03536514711376
2.1672293312686
5.56855485570501
6.24382336181443
 
SCALARS order float
LOOKUP_TABLE default
5
6
6
7
5
7
7
6
6
7
7
6
4
 
SCALARS aspectRatio float
LOOKUP_TABLE default
4.467819157159
4.18072480175367
4.28093493232369
4.18072480175356
4.53118690123654
4.18523482350689
3.66454257563303
3.93589558028215
3.60546599179303
3.8551947282646
2.89143625753303
5.14203833684841
7.5624729171691
 
SCALARS inscribedSphereRadius float
LOOKUP_TABLE default
11.9161334538121
15
15.5528632789848
15.0000000000005
7.41563582375435
13.3536079919525
21.1507817127584
10.3722101242077
18.4822436444297
17.6180392500649
23.791992085255
8.96584046534724
3.68570705080179
